# vtk DataFile Version 3.0
vtk output
ASCII
DATASET POLYDATA

POINTS 169 float
21384 57697 42354
22849 69207 34944
22374 70884 35776
22479 69102 35542
23232 65142 40222
18572 61393 41756
18018 61776 39650
18678 62937 37362
24789 68640 41418
25172 69049 41756
25410 69300 41106
25304 68970 41132
21925 58806 40794
23073 55875 37518
18084 71253 44122
23575 73761 42614
23100 72626 42484
22968 77088 43524
23707 76626 43004
23984 78936 42718
23865 80850 42640
23641 79965 41782
24103 79305 41574
24499 78500 41808
24182 76560 42432
23562 75345 42536
22242 76533 44616
21978 77391 43030
23232 77035 42510
23192 76956 43186
23535 76665 42406
23364 70659 44070
21621 71253 41106
20961 71306 41912
22004 72336 42536
22004 70488 43134
23733 72930 40768
23166 72930 43186
23073 72758 42458
17635 69247 44304
17622 68046 43368
17886 68706 43732
16196 66396 43030
22149 61327 31668
21714 61908 30992
23509 64746 33358
24816 64231 33254
22123 60297 31122
24156 62013 31044
24090 64746 36270
21714 64508 34606
24288 68508 32942
23654 67320 32838
22770 67346 33306
21621 65709 33618
24459 61380 31382
21951 61050 31850
24222 61380 31772
24948 59611 31070
25053 59888 30862
24288 60680 31044
23786 62185 31278
24420 64231 33176
22347 61815 31356
22862 63162 31850
24129 63360 37362
23773 63228 38116
20658 66290 37102
19285 66330 38246
20790 66475 37284
22836 67914 35230
23337 65564 37102
26835 63096 34762
27086 63228 34892
26545 62673 35022
25806 62251 35256
25779 62647 35854
24393 63399 35880
23522 66066 37310
23232 67874 35542
21648 64957 36400
22862 64812 37882
18255 61261 40482
23430 66264 39650
22321 66831 40092
24261 64020 39936
24169 63386 40014
22730 58014 41834
21714 58436 41860
22506 57393 38870
22308 57446 38376
22044 57684 38922
22875 56311 39182
22004 56034 38428
25014 52641 36764
24829 53697 36998
23298 54727 36894
22928 56694 38896
21120 56852 39962
23364 59466 41626
24261 69986 45656
23892 69036 45344
23799 68600 45760
24024 67953 45136
23918 68310 44876
23997 69128 44668
24512 67465 43732
24618 64429 41418
24684 63927 41054
24459 63188 41158
24103 61842 40456
22836 61353 41080
22123 57842 41990
19773 59532 42224
8184 61723 39286
22704 70092 45084
19483 73814 42822
18810 76626 41652
18084 78830 40950
23364 66435 39910
23100 70237 43628
23298 70197 44122
22717 73194 41912
23377 74989 43108
23113 76058 42796
23826 75504 43472
23865 78091 42198
23641 81193 42510
23707 54054 41704
20790 69498 36634
21120 69207 37700
22651 60390 41470
22730 59109 40560
22585 58674 41756
22651 58212 40898
18480 61815 41418
13662 60363 42016
14256 60944 41808
14058 60271 41860
13873 60126 41782
13226 60271 41392
19021 75847 42016
13358 63716 43186
11127 60456 39728
10560 60680 40014
9662 61591 39156
9345 62264 38740
7788 61908 39234
7128 62013 38922
23667 63650 38818
22440 67412 39676
22413 72573 35178
21846 72666 35152
24486 72402 34476
22387 72666 34970
22572 69128 38324
23113 69828 38454
23826 66554 43394
25304 70026 46826
21912 64257 33800
21885 64363 36244
22255 64772 37336
24486 60720 36738
24763 60126 36660
23007 64574 32760
25212 64257 32812
22400 64746 34242
21978 62700 34736
23694 61987 31798

VERTICES 169 338
1 0
1 1
1 2
1 3
1 4
1 5
1 6
1 7
1 8
1 9
1 10
1 11
1 12
1 13
1 14
1 15
1 16
1 17
1 18
1 19
1 20
1 21
1 22
1 23
1 24
1 25
1 26
1 27
1 28
1 29
1 30
1 31
1 32
1 33
1 34
1 35
1 36
1 37
1 38
1 39
1 40
1 41
1 42
1 43
1 44
1 45
1 46
1 47
1 48
1 49
1 50
1 51
1 52
1 53
1 54
1 55
1 56
1 57
1 58
1 59
1 60
1 61
1 62
1 63
1 64
1 65
1 66
1 67
1 68
1 69
1 70
1 71
1 72
1 73
1 74
1 75
1 76
1 77
1 78
1 79
1 80
1 81
1 82
1 83
1 84
1 85
1 86
1 87
1 88
1 89
1 90
1 91
1 92
1 93
1 94
1 95
1 96
1 97
1 98
1 99
1 100
1 101
1 102
1 103
1 104
1 105
1 106
1 107
1 108
1 109
1 110
1 111
1 112
1 113
1 114
1 115
1 116
1 117
1 118
1 119
1 120
1 121
1 122
1 123
1 124
1 125
1 126
1 127
1 128
1 129
1 130
1 131
1 132
1 133
1 134
1 135
1 136
1 137
1 138
1 139
1 140
1 141
1 142
1 143
1 144
1 145
1 146
1 147
1 148
1 149
1 150
1 151
1 152
1 153
1 154
1 155
1 156
1 157
1 158
1 159
1 160
1 161
1 162
1 163
1 164
1 165
1 166
1 167
1 168

POINT_DATA 169
SCALARS scalars float 1
LOOKUP_TABLE default
0.500000
0.500000
0.500000
0.500000
0.500000
0.500000
0.500000
0.500000
0.500000
0.500000
0.500000
0.500000
0.500000
0.500000
0.500000
0.500000
0.500000
0.500000
0.500000
0.500000
0.500000
0.500000
0.500000
0.500000
0.500000
0.500000
0.500000
0.500000
0.500000
0.500000
0.500000
0.500000
0.500000
0.500000
0.500000
0.500000
0.500000
0.500000
0.500000
0.500000
0.500000
0.500000
0.500000
0.500000
0.500000
0.500000
0.500000
0.500000
0.500000
0.500000
0.500000
0.500000
0.500000
0.500000
0.500000
0.500000
0.500000
0.500000
0.500000
0.500000
0.500000
0.500000
0.500000
0.500000
0.500000
0.500000
0.500000
0.500000
0.500000
0.500000
0.500000
0.500000
0.500000
0.500000
0.500000
0.500000
0.500000
0.500000
0.500000
0.500000
0.500000
0.500000
0.500000
0.500000
0.500000
0.500000
0.500000
0.500000
0.500000
0.500000
0.500000
0.500000
0.500000
0.500000
0.500000
0.500000
0.500000
0.500000
0.500000
0.500000
0.500000
0.500000
0.500000
0.500000
0.500000
0.500000
0.500000
0.500000
0.500000
0.500000
0.500000
0.500000
0.500000
0.500000
0.500000
0.500000
0.500000
0.500000
0.500000
0.500000
0.500000
0.500000
0.500000
0.500000
0.500000
0.500000
0.500000
0.500000
0.500000
0.500000
0.500000
0.500000
0.500000
0.500000
0.500000
0.500000
0.500000
0.500000
0.500000
0.500000
0.500000
0.500000
0.500000
0.500000
0.500000
0.500000
0.500000
0.500000
0.500000
0.500000
0.500000
0.500000
0.500000
0.500000
0.500000
0.500000
0.500000
0.500000
0.500000
0.500000
0.500000
0.500000
0.500000
0.500000
0.500000
0.500000
0.500000
0.500000
0.500000
