# vtk DataFile Version 3.0
vtk output
ASCII
DATASET POLYDATA

POINTS 235 float
7722 76230 69966
8461 75042 69056
9372 74527 68120
9477 71583 67392
9781 74923 68276
9794 70712 67288
9847 72151 66612
10098 72217 66092
10190 69973 67418
10494 69999 67860
10560 75174 68380
11167 72600 64454
11220 68138 67158
11299 70263 69056
11365 74078 69758
11853 63782 70512
11880 76269 68224
11880 70593 70174
12249 70686 71188
12276 64152 69498
12276 64772 70174
12342 65221 70928
12342 65868 72540
12342 72428 63466
12342 71557 72540
12368 71016 71942
12447 65564 71812
12447 71240 63778
12540 66198 73944
12553 66145 73216
12764 73735 70876
12843 72798 63310
12936 65010 68666
13068 65181 67756
13134 70395 75790
13200 70884 74828
13305 71834 74022
13345 73590 72332
13358 62079 65962
13371 78909 68484
13398 72956 62686
13437 72283 73372
13437 70224 63258
13569 73893 72748
13662 73035 59566
13833 79200 68302
13860 73128 60424
13886 72956 62088
13926 62119 65962
13992 70184 62218
14071 69722 62946
14150 81021 67236
14203 81668 67652
14322 72837 61386
14335 75306 73502
14467 78355 67860
14520 63848 67054
14533 64429 67652
14586 73141 71786
14665 83186 68588
14784 83160 68276
14863 70884 61464
14916 88585 77532
14942 88321 77298
15048 62040 66430
15048 88308 74594
15048 88149 76622
15114 88902 78104
15114 83463 69498
15127 69564 76830
15140 69339 63674
15140 88136 75998
15153 61934 65936
15153 88242 75348
15193 73141 72098
15193 69999 76960
15246 74791 74464
15246 77431 67548
15325 88176 73866
15549 72732 71838
15576 70884 76362
15589 68640 64220
15708 76692 66352
15747 83648 70304
15774 71583 75998
15800 84057 71136
15813 84612 68120
15840 88057 73086
15932 77761 67808
15985 73669 75192
16117 70382 61334
16170 85206 68848
16236 72138 76024
16315 73062 75972
16434 86394 69472
16500 87252 69290
16579 86935 69888
16579 87793 72202
16605 68666 65234
16632 77880 65104
16737 66290 74152
16803 68877 66664
16869 72507 71552
16922 87001 68978
17028 68772 65754
17054 69181 67366
17107 66990 74256
17199 77827 68692
17292 78566 65000
17358 62541 66040
17371 87291 70876
17437 67610 74386
17463 83054 73294
17516 69326 61360
17529 81906 72540
17556 87806 71136
17556 69960 68068
17582 75992 68120
17635 67676 65858
17661 68072 65884
17793 66884 65416
17820 88506 70798
17833 67293 65546
17846 63096 66456
17886 86262 73866
17912 66198 64948
17952 78236 68822
17952 65736 64974
18031 93786 68198
18044 83899 73840
18057 80757 72098
18084 92928 69056
18097 93403 68510
18097 69867 68744
18110 78632 69992
18150 65340 64948
18163 85536 74126
18282 71557 71006
18282 92149 69628
18282 87885 71812
18295 75213 66924
18308 79952 71786
18374 79292 70954
18387 71702 75452
18480 75213 65858
18506 75332 64714
18506 88479 69914
18546 80876 64870
18572 77457 72774
18638 91080 69784
18678 71082 71006
18691 73722 74516
18704 78051 67704
18744 82077 64636
18783 72692 75036
18783 75570 64168
18810 90578 69784
18849 75319 65052
18849 68442 61620
19140 74883 74724
19140 90710 72956
19179 91146 72982
19206 74817 74256
19206 75438 73164
19219 88070 72540
19298 89931 73320
19311 80678 71422
19338 67597 74620
19364 75649 63492
19364 70620 66638
19443 88202 73216
19470 88704 73164
19562 89496 73268
19615 63782 67106
19668 75174 63050
19694 75807 62634
19760 77616 67288
19813 67531 73502
19813 71570 69160
19932 83661 64636
19945 64152 67990
19998 70580 71656
19998 66528 69784
20024 66132 69706
20064 70118 65208
20077 71174 65936
20077 71874 69836
20090 66990 70460
20169 72415 69680
20209 65379 68666
20275 73141 69628
20288 64957 68432
20301 65736 69004
20354 67716 72254
20433 68046 62322
20565 77127 66534
20605 80691 71188
20724 87450 64532
20829 85813 65078
20922 69128 62582
20935 67874 62842
21133 63492 67704
21225 76322 65884
21252 69564 63362
21331 69300 72020
21450 79992 71812
21661 67848 61984
21674 69828 64220
21714 75121 61750
21793 75134 66768
21846 75900 64870
21938 75530 63154
21951 74487 60840
22202 69986 64948
22215 73933 60346
22334 74448 67574
22374 68125 71292
22374 70131 65650
22638 73418 70122
22638 70567 65702
22809 66396 61126
22875 73880 68692
22875 79464 73268
22994 71161 65884
23047 73471 69550
23166 66000 61152
23390 67650 70720
23496 80256 74672
23852 65696 62010
24063 67531 70044
24380 64851 61022
24420 65379 61490
24486 80784 75114
24908 82038 75920
24948 82645 76596

LINES 234 702
2 0 1
2 1 2
2 2 3
2 6 3
2 2 4
2 3 5
2 6 7
2 5 8
2 5 9
2 4 10
2 7 11
2 8 12
2 9 13
2 10 14
2 19 15
2 10 16
2 13 17
2 17 18
2 32 19
2 19 20
2 20 21
2 26 22
2 11 23
2 25 24
2 18 25
2 21 26
2 11 27
2 29 28
2 22 29
2 14 30
2 23 31
2 33 32
2 12 33
2 35 34
2 36 35
2 41 36
2 30 37
2 48 38
2 16 39
2 31 40
2 43 41
2 27 42
2 37 43
2 46 44
2 39 45
2 53 46
2 40 47
2 72 48
2 50 49
2 42 50
2 52 51
2 45 52
2 47 53
2 43 54
2 45 55
2 57 56
2 33 57
2 37 58
2 60 59
2 52 60
2 49 61
2 63 62
2 66 63
2 56 64
2 78 65
2 71 66
2 62 67
2 59 68
2 75 69
2 50 70
2 73 71
2 64 72
2 65 73
2 58 74
2 80 75
2 54 76
2 55 77
2 87 78
2 74 79
2 84 80
2 70 81
2 77 82
2 68 83
2 92 84
2 83 85
2 60 86
2 97 87
2 77 88
2 76 89
2 61 90
2 86 91
2 93 92
2 89 93
2 91 94
2 96 95
2 94 96
2 115 97
2 81 98
2 82 99
2 106 100
2 104 101
2 79 102
2 95 103
2 98 104
2 101 105
2 111 106
2 88 107
2 99 108
2 72 109
2 96 110
2 167 111
2 114 112
2 90 113
2 130 114
2 110 115
2 105 116
2 107 117
2 119 118
2 104 119
2 122 120
2 115 121
2 118 122
2 109 123
2 136 124
2 120 125
2 107 126
2 125 127
2 132 128
2 112 129
2 141 130
2 138 131
2 131 132
2 116 133
2 107 134
2 127 135
2 129 136
2 102 137
2 149 138
2 115 139
2 117 140
2 142 141
2 134 142
2 154 143
2 140 144
2 157 145
2 121 146
2 108 147
2 141 148
2 156 149
2 137 150
2 162 151
2 107 152
2 147 153
2 151 154
2 145 155
2 146 156
2 144 157
2 113 158
2 162 159
2 165 160
2 160 161
2 163 162
2 148 163
2 139 164
2 172 165
2 130 166
2 177 167
2 155 168
2 104 169
2 164 170
2 170 171
2 171 172
2 123 173
2 168 174
2 174 175
2 152 176
2 193 177
2 133 178
2 153 179
2 173 180
2 150 181
2 183 182
2 192 183
2 185 184
2 169 185
2 178 186
2 182 187
2 186 188
2 191 189
2 188 190
2 180 191
2 189 192
2 187 193
2 158 194
2 176 195
2 166 196
2 198 197
2 179 198
2 194 199
2 194 200
2 173 201
2 195 202
2 199 203
2 181 204
2 196 205
2 200 206
2 203 207
2 211 208
2 202 209
2 202 210
2 210 211
2 208 212
2 207 213
2 212 214
2 209 215
2 204 216
2 213 217
2 224 218
2 217 219
2 206 220
2 215 221
2 205 222
2 219 223
2 221 224
2 220 225
2 216 226
2 222 227
2 231 228
2 226 229
2 231 230
2 225 231
2 227 232
2 232 233
2 233 234

VERTICES 235 470
1 0
1 1
1 2
1 3
1 4
1 5
1 6
1 7
1 8
1 9
1 10
1 11
1 12
1 13
1 14
1 15
1 16
1 17
1 18
1 19
1 20
1 21
1 22
1 23
1 24
1 25
1 26
1 27
1 28
1 29
1 30
1 31
1 32
1 33
1 34
1 35
1 36
1 37
1 38
1 39
1 40
1 41
1 42
1 43
1 44
1 45
1 46
1 47
1 48
1 49
1 50
1 51
1 52
1 53
1 54
1 55
1 56
1 57
1 58
1 59
1 60
1 61
1 62
1 63
1 64
1 65
1 66
1 67
1 68
1 69
1 70
1 71
1 72
1 73
1 74
1 75
1 76
1 77
1 78
1 79
1 80
1 81
1 82
1 83
1 84
1 85
1 86
1 87
1 88
1 89
1 90
1 91
1 92
1 93
1 94
1 95
1 96
1 97
1 98
1 99
1 100
1 101
1 102
1 103
1 104
1 105
1 106
1 107
1 108
1 109
1 110
1 111
1 112
1 113
1 114
1 115
1 116
1 117
1 118
1 119
1 120
1 121
1 122
1 123
1 124
1 125
1 126
1 127
1 128
1 129
1 130
1 131
1 132
1 133
1 134
1 135
1 136
1 137
1 138
1 139
1 140
1 141
1 142
1 143
1 144
1 145
1 146
1 147
1 148
1 149
1 150
1 151
1 152
1 153
1 154
1 155
1 156
1 157
1 158
1 159
1 160
1 161
1 162
1 163
1 164
1 165
1 166
1 167
1 168
1 169
1 170
1 171
1 172
1 173
1 174
1 175
1 176
1 177
1 178
1 179
1 180
1 181
1 182
1 183
1 184
1 185
1 186
1 187
1 188
1 189
1 190
1 191
1 192
1 193
1 194
1 195
1 196
1 197
1 198
1 199
1 200
1 201
1 202
1 203
1 204
1 205
1 206
1 207
1 208
1 209
1 210
1 211
1 212
1 213
1 214
1 215
1 216
1 217
1 218
1 219
1 220
1 221
1 222
1 223
1 224
1 225
1 226
1 227
1 228
1 229
1 230
1 231
1 232
1 233
1 234

POINT_DATA 235
SCALARS scalars float 1
LOOKUP_TABLE default
0.000000
0.000000
0.000000
0.000000
0.000000
0.000000
0.000000
0.000000
0.000000
0.000000
0.000000
0.000000
0.000000
0.000000
0.000000
0.000000
0.000000
0.000000
0.000000
0.000000
0.000000
0.000000
0.000000
0.000000
0.000000
0.000000
0.000000
0.000000
0.000000
0.000000
0.000000
0.000000
0.000000
0.000000
0.000000
0.000000
0.000000
0.000000
0.000000
0.000000
0.000000
0.000000
0.000000
0.000000
0.000000
0.000000
0.000000
0.000000
0.000000
0.000000
0.000000
0.000000
0.000000
0.000000
0.000000
0.000000
0.000000
0.000000
0.000000
0.000000
0.000000
0.000000
0.000000
0.000000
0.000000
0.000000
0.000000
0.000000
0.000000
0.000000
0.000000
0.000000
0.000000
0.000000
0.000000
0.000000
0.000000
0.000000
0.000000
0.000000
0.000000
0.000000
0.000000
0.000000
0.000000
0.000000
0.000000
0.000000
0.000000
0.000000
0.000000
0.000000
0.000000
0.000000
0.000000
0.000000
0.000000
0.000000
0.000000
0.000000
0.000000
0.000000
0.000000
0.000000
0.000000
0.000000
0.000000
0.000000
0.000000
0.000000
0.000000
0.000000
0.000000
0.000000
0.000000
0.000000
0.000000
0.000000
0.000000
0.000000
0.000000
0.000000
0.000000
0.000000
0.000000
0.000000
0.000000
0.000000
0.000000
0.000000
0.000000
0.000000
0.000000
0.000000
0.000000
0.000000
0.000000
0.000000
0.000000
0.000000
0.000000
0.000000
0.000000
0.000000
0.000000
0.000000
0.000000
0.000000
0.000000
0.000000
0.000000
0.000000
0.000000
0.000000
0.000000
0.000000
0.000000
0.000000
0.000000
0.000000
0.000000
0.000000
0.000000
0.000000
0.000000
0.000000
0.000000
0.000000
0.000000
0.000000
0.000000
0.000000
0.000000
0.000000
0.000000
0.000000
0.000000
0.000000
0.000000
0.000000
0.000000
0.000000
0.000000
0.000000
0.000000
0.000000
0.000000
0.000000
0.000000
0.000000
0.000000
0.000000
0.000000
0.000000
0.000000
0.000000
0.000000
0.000000
0.000000
0.000000
0.000000
0.000000
0.000000
0.000000
0.000000
0.000000
0.000000
0.000000
0.000000
0.000000
0.000000
0.000000
0.000000
0.000000
0.000000
0.000000
0.000000
0.000000
0.000000
0.000000
0.000000
0.000000
0.000000
0.000000
0.000000
0.000000
0.000000
0.000000
0.000000
0.000000
0.000000
0.000000
0.000000
0.000000
0.000000
