# vtk DataFile Version 3.0
vtk output
ASCII
DATASET POLYDATA

POINTS 174 float
8487 33686 75764
10784 34452 75218
11061 34584 75166
11906 35587 74646
12381 35653 74048
12619 33211 75166
13094 36102 73684
13305 36247 87932
13358 34425 87854
13424 37950 72956
13437 35257 73996
13530 41078 71084
13596 41474 70590
13596 32696 74568
13728 38108 87802
13820 49011 67106
13820 32366 75530
13833 39600 72306
13860 40788 71318
13992 35059 74048
14058 45804 86580
14097 40009 87126
14190 31983 75738
14282 30175 74750
14295 48140 68016
14322 31521 76284
14427 31125 74334
14467 40524 86866
14480 30756 74646
14559 31957 74282
14599 40656 72124
14665 45210 70772
14757 41276 86450
14784 44748 86294
14810 31284 74256
14810 47850 68692
14823 44484 71136
14823 43863 71370
14823 30914 76596
14889 46028 69862
14916 43586 71526
14916 39151 78390
15048 41844 72176
15048 45843 87334
15061 38610 78390
15087 32300 74360
15127 42504 86112
15140 46833 69160
15153 36933 91208
15219 38491 84422
15219 42649 71786
15246 36709 87100
15246 37527 85618
15272 39362 84214
15325 37197 86190
15338 37884 85228
15351 30835 74074
15378 37488 91338
15378 35666 88504
15378 35112 73632
15378 37052 72436
15391 30254 76856
15404 36141 87958
15404 37950 84968
15404 39494 85280
15444 36207 90792
15444 35745 89648
15457 38016 91754
15457 36432 87568
15483 38161 78390
15523 40022 84500
15536 32498 74776
15576 38913 83226
15576 29779 77194
15576 36009 73060
15668 33105 74802
15708 38478 92040
15747 48087 68432
15787 29383 77688
15840 38940 83876
15945 38095 78702
15972 40695 84994
16038 38874 81926
16064 48510 68042
16064 35310 73762
16196 38451 81588
16236 37554 80236
16302 36432 78104
16328 41342 85306
16407 34016 75166
16473 30294 73112
16500 35072 76362
16605 49302 67652
16632 29238 78988
16698 38874 84032
16830 50094 67366
17054 50859 67210
17160 27350 79664
17252 35851 73632
17688 25687 80080
17833 24882 79924
17833 30056 72670
17925 38742 85982
18031 36564 73736
18123 41672 85618
18361 30096 72488
18480 36920 73086
18480 36960 74854
18559 30426 70148
19034 30360 70746
19074 38689 87516
19166 41857 85982
19272 30228 69446
19364 37897 76258
19496 37752 78208
19536 31944 67808
19549 31640 67964
19615 30954 68640
19800 36207 79248
19813 45144 83564
19839 30294 71422
20130 35112 79222
20196 41395 75296
20209 44616 83746
20209 37963 73008
20262 30030 72358
20420 40458 74620
20605 42002 85878
20658 40458 70694
20658 39758 72800
20658 33937 79976
20684 44457 84058
20724 41131 86398
20737 40194 69394
20829 41052 67470
20948 39732 68536
20948 40550 86788
20948 39837 71812
21014 34029 80600
21133 29858 72358
21225 43982 84110
21225 43058 85150
21252 34650 80652
21344 33039 81666
21410 37131 88166
21582 35772 89258
21608 36234 81302
21674 35336 90402
21687 46807 82134
21727 35389 80652
21885 44972 83408
21885 44022 84266
21912 48008 82394
22176 39969 87178
22176 36036 73008
22321 35877 80262
22347 30531 72670
22545 32340 83564
22572 32841 83694
22611 36300 73658
22770 38610 87750
22902 30795 72202
23364 38148 74854
23667 35943 74048
23905 36168 74360
23931 38082 73788
24037 31125 72384
24116 34095 79482
24156 39006 75374
24222 38346 76622
24288 37699 77532
24591 37831 78078
25898 38913 73502
26835 39864 73294

LINES 172 516
2 0 1
2 1 2
2 2 3
2 3 4
2 2 5
2 4 6
2 14 7
2 7 8
2 6 9
2 6 10
2 18 11
2 11 12
2 5 13
2 21 14
2 24 15
2 13 16
2 9 17
2 30 18
2 10 19
2 33 20
2 27 21
2 16 22
2 28 23
2 35 24
2 22 25
2 34 26
2 32 27
2 26 28
2 13 29
2 17 30
2 36 31
2 88 32
2 46 33
2 29 34
2 47 35
2 37 36
2 40 37
2 25 38
2 31 39
2 50 40
2 44 41
2 30 42
2 20 43
2 69 44
2 29 45
2 88 46
2 39 47
2 65 48
2 53 49
2 42 50
2 54 51
2 55 52
2 79 53
2 52 54
2 63 55
2 45 56
2 48 57
2 62 58
2 19 59
2 74 60
2 38 61
2 68 62
2 49 63
2 81 64
2 66 65
2 58 66
2 57 67
2 51 68
2 80 69
2 53 70
2 82 72
2 61 73
2 59 74
2 45 75
2 67 76
2 35 77
2 73 78
2 72 79
2 87 80
2 70 81
2 85 82
2 77 83
2 59 84
2 86 85
2 87 86
2 91 87
2 81 88
2 75 89
2 56 90
2 89 91
2 83 92
2 78 93
2 79 94
2 92 95
2 95 96
2 93 97
2 84 98
2 97 99
2 99 100
2 90 101
2 94 102
2 98 103
2 88 104
2 101 105
2 103 106
2 103 107
2 109 108
2 120 109
2 102 110
2 104 111
2 108 112
2 107 113
2 113 114
2 116 115
2 117 116
2 112 117
2 114 118
2 123 119
2 125 120
2 118 121
2 126 122
2 131 123
2 106 124
2 105 125
2 129 126
2 111 127
2 137 128
2 124 129
2 121 130
2 138 130
2 140 131
2 127 132
2 128 133
2 135 134
2 133 135
2 132 136
2 129 137
2 142 138
2 125 139
2 151 140
2 127 141
2 149 142
2 130 143
2 110 144
2 144 145
2 155 146
2 145 147
2 150 148
2 155 149
2 151 150
2 141 151
2 148 152
2 136 153
2 124 154
2 167 155
2 139 156
2 158 157
2 143 158
2 154 159
2 153 160
2 156 161
2 165 162
2 159 163
2 163 164
2 159 165
2 161 166
2 162 168
2 168 169
2 169 170
2 170 171
2 165 172
2 172 173

VERTICES 174 348
1 0
1 1
1 2
1 3
1 4
1 5
1 6
1 7
1 8
1 9
1 10
1 11
1 12
1 13
1 14
1 15
1 16
1 17
1 18
1 19
1 20
1 21
1 22
1 23
1 24
1 25
1 26
1 27
1 28
1 29
1 30
1 31
1 32
1 33
1 34
1 35
1 36
1 37
1 38
1 39
1 40
1 41
1 42
1 43
1 44
1 45
1 46
1 47
1 48
1 49
1 50
1 51
1 52
1 53
1 54
1 55
1 56
1 57
1 58
1 59
1 60
1 61
1 62
1 63
1 64
1 65
1 66
1 67
1 68
1 69
1 70
1 71
1 72
1 73
1 74
1 75
1 76
1 77
1 78
1 79
1 80
1 81
1 82
1 83
1 84
1 85
1 86
1 87
1 88
1 89
1 90
1 91
1 92
1 93
1 94
1 95
1 96
1 97
1 98
1 99
1 100
1 101
1 102
1 103
1 104
1 105
1 106
1 107
1 108
1 109
1 110
1 111
1 112
1 113
1 114
1 115
1 116
1 117
1 118
1 119
1 120
1 121
1 122
1 123
1 124
1 125
1 126
1 127
1 128
1 129
1 130
1 131
1 132
1 133
1 134
1 135
1 136
1 137
1 138
1 139
1 140
1 141
1 142
1 143
1 144
1 145
1 146
1 147
1 148
1 149
1 150
1 151
1 152
1 153
1 154
1 155
1 156
1 157
1 158
1 159
1 160
1 161
1 162
1 163
1 164
1 165
1 166
1 167
1 168
1 169
1 170
1 171
1 172
1 173

POINT_DATA 174
SCALARS scalars float 1
LOOKUP_TABLE default
0.000000
0.000000
0.000000
0.000000
0.000000
0.000000
0.000000
0.000000
0.000000
0.000000
0.000000
0.000000
0.000000
0.000000
0.000000
0.000000
0.000000
0.000000
0.000000
0.000000
0.000000
0.000000
0.000000
0.000000
0.000000
0.000000
0.000000
0.000000
0.000000
0.000000
0.000000
0.000000
0.000000
0.000000
0.000000
0.000000
0.000000
0.000000
0.000000
0.000000
0.000000
0.000000
0.000000
0.000000
0.000000
0.000000
0.000000
0.000000
0.000000
0.000000
0.000000
0.000000
0.000000
0.000000
0.000000
0.000000
0.000000
0.000000
0.000000
0.000000
0.000000
0.000000
0.000000
0.000000
0.000000
0.000000
0.000000
0.000000
0.000000
0.000000
0.000000
0.000000
0.000000
0.000000
0.000000
0.000000
0.000000
0.000000
0.000000
0.000000
0.000000
0.000000
0.000000
0.000000
0.000000
0.000000
0.000000
0.000000
0.000000
0.000000
0.000000
0.000000
0.000000
0.000000
0.000000
0.000000
0.000000
0.000000
0.000000
0.000000
0.000000
0.000000
0.000000
0.000000
0.000000
0.000000
0.000000
0.000000
0.000000
0.000000
0.000000
0.000000
0.000000
0.000000
0.000000
0.000000
0.000000
0.000000
0.000000
0.000000
0.000000
0.000000
0.000000
0.000000
0.000000
0.000000
0.000000
0.000000
0.000000
0.000000
0.000000
0.000000
0.000000
0.000000
0.000000
0.000000
0.000000
0.000000
0.000000
0.000000
0.000000
0.000000
0.000000
0.000000
0.000000
0.000000
0.000000
0.000000
0.000000
0.000000
0.000000
0.000000
0.000000
0.000000
0.000000
0.000000
0.000000
0.000000
0.000000
0.000000
0.000000
0.000000
0.000000
0.000000
0.000000
0.000000
0.000000
0.000000
0.000000
0.000000
0.000000
0.000000
0.000000
0.000000
