# vtk DataFile Version 3.0
vtk output
ASCII
DATASET POLYDATA

POINTS 192 float
6006 51414 54106
7352 50754 53560
9108 50556 53638
10520 50925 54678
11589 51308 55588
12210 51361 56108
12711 51480 56602
13543 51968 56628
14335 52404 56654
15510 52734 56602
16566 52668 56524
17239 52536 56680
18546 52470 56914
19047 52509 56836
20763 52272 56680
20790 52641 56316
20895 53130 56160
20961 44946 51298
21001 51295 56290
21397 50701 55926
21423 56179 57772
21450 54714 59930
21516 55532 58734
21793 50358 55120
22070 51612 57408
22202 55110 60268
22242 52100 57070
22281 43626 51870
22321 49988 54444
22334 49698 53794
22400 52509 56602
22440 42187 51740
22506 43916 52832
22809 41197 51402
22809 52800 56238
22902 44312 50882
22928 44312 53794
22994 51744 58370
23034 54819 55718
23060 54067 60970
23073 51506 57720
23100 44959 54574
23100 55215 55406
23139 39243 60242
23192 39705 61100
23403 40326 50700
23403 57420 67028
23403 44457 57720
23403 52668 55848
23430 44814 50310
23496 57631 67808
23522 46345 67314
23522 46543 66716
23575 51097 57330
23588 40933 61308
23628 44655 49166
23667 50516 65130
23667 50965 65182
23667 51321 64896
23720 45817 50388
23733 44220 55328
23786 44853 58422
23826 50041 65650
23826 57024 66014
23826 57090 59748
23852 52549 61984
23892 46464 65962
23918 42966 55874
23958 52470 62452
23971 52298 63180
23984 52219 63518
23984 52404 62842
24024 51770 63960
24037 51519 64506
24050 45144 59254
24090 50622 57070
24103 46398 65000
24156 53328 55276
24182 45672 59800
24222 45540 55302
24222 45817 64610
24235 47586 54496
24261 42372 56316
24288 57380 65208
24288 51453 59202
24367 52298 60502
24420 48866 56134
24433 52734 61542
24433 46345 57772
24486 57103 64168
24486 46134 57408
24499 41870 61620
24499 47150 57850
24512 47784 53950
24525 46873 55198
24552 47071 58708
24565 47546 55484
24618 60192 57018
24684 46873 58188
24684 46160 64324
24710 56733 60528
24723 59941 56654
24763 41184 56316
24763 53328 54730
24789 47322 60138
24789 46926 63778
24816 58344 59072
24882 50503 56368
24908 47414 59202
24948 46503 50076
24948 51546 59904
24974 56232 63154
25014 52470 53820
25027 62185 59930
25053 46992 62738
25093 58885 55770
25093 56826 63804
25093 52681 54262
25106 49368 60112
25119 57499 56238
25119 47731 59800
25159 48747 60424
25159 52245 53482
25172 53697 56056
25185 51612 52910
25251 47652 54834
25251 51968 53170
25291 52245 56030
25344 54529 55952
25357 55110 62738
25383 57024 59540
25410 39613 56810
25410 53895 61854
25436 47084 61100
25476 56918 60996
25502 39534 57330
25542 51625 55588
25542 48510 60788
25555 55585 56056
25568 56073 56186
25608 46596 62270
25634 54714 63570
25634 47546 59410
25674 54714 64116
25674 54648 63050
25687 61987 59722
25806 54753 62296
25819 46635 61672
25872 47190 54470
25938 47058 49816
25938 56258 61516
25951 54080 59462
25964 56641 59306
25977 56509 61308
26030 54120 59254
26070 52549 59982
26070 45672 64636
26241 41857 61334
26268 46437 62790
26281 46952 59150
26334 44642 64844
26347 49130 50648
26347 41936 60944
26360 46662 49452
26360 47691 53482
26373 55506 59072
26400 46635 48568
26413 45170 64974
26439 56562 55640
26479 47269 48152
26492 48734 61256
26558 43626 59748
26624 57459 60762
26624 45368 58786
26690 57314 63960
26743 57816 55484
26743 61050 59020
26809 57156 55432
26809 40959 61698
26835 44682 59358
26862 48800 51168
26928 59901 59852
26954 58608 60242
26954 46279 63492
26994 39283 61724
26994 48972 62062
27073 48219 52312
27073 48312 63882
27297 57631 64558
27416 48510 62998
27654 58080 65442
27799 46675 63622

LINES 191 573
2 0 1
2 1 2
2 2 3
2 3 4
2 4 5
2 5 6
2 6 7
2 7 8
2 8 9
2 9 10
2 10 11
2 11 12
2 12 13
2 13 14
2 14 15
2 15 16
2 27 17
2 15 18
2 18 19
2 22 20
2 25 21
2 21 22
2 19 23
2 14 24
2 39 25
2 24 26
2 32 27
2 23 28
2 28 29
2 26 30
2 27 31
2 36 32
2 31 33
2 30 34
2 27 35
2 41 36
2 40 37
2 16 38
2 87 39
2 24 40
2 79 41
2 38 42
2 44 43
2 54 44
2 33 45
2 63 46
2 61 47
2 34 48
2 35 49
2 46 50
2 52 51
2 66 52
2 40 53
2 91 54
2 49 55
2 57 56
2 58 57
2 73 58
2 49 59
2 79 60
2 74 61
2 56 62
2 83 63
2 100 64
2 87 65
2 76 66
2 60 67
2 65 68
2 71 69
2 69 70
2 68 71
2 70 72
2 72 73
2 78 74
2 53 75
2 80 76
2 48 77
2 104 78
2 94 79
2 99 80
2 125 81
2 67 82
2 89 83
2 37 84
2 110 85
2 107 86
2 85 87
2 98 88
2 116 89
2 88 90
2 157 91
2 98 92
2 81 93
2 96 94
2 108 95
2 86 96
2 101 97
2 95 98
2 105 99
2 134 100
2 115 101
2 82 102
2 77 103
2 121 104
2 114 105
2 130 106
2 75 107
2 142 108
2 59 109
2 84 110
2 129 111
2 117 112
2 145 113
2 140 114
2 119 115
2 111 116
2 103 117
2 110 118
2 139 119
2 104 120
2 118 121
2 112 122
2 127 123
2 126 124
2 94 125
2 122 126
2 107 127
2 123 128
2 146 129
2 152 130
2 102 131
2 87 132
2 137 133
2 153 134
2 131 135
2 127 136
2 121 137
2 128 138
2 138 139
2 147 140
2 144 141
2 120 142
2 141 143
2 129 144
2 176 145
2 132 146
2 133 147
2 125 148
2 109 149
2 146 150
2 155 151
2 165 152
2 150 153
2 151 154
2 110 155
2 99 156
2 162 157
2 140 158
2 142 159
2 167 160
2 180 161
2 171 162
2 149 163
2 148 164
2 154 165
2 163 166
2 156 167
2 139 168
2 166 169
2 137 170
2 179 171
2 153 172
2 159 173
2 116 174
2 177 175
2 181 176
2 168 177
2 157 178
2 173 179
2 186 180
2 182 181
2 172 182
2 158 183
2 178 184
2 170 185
2 164 186
2 189 187
2 174 188
2 185 189
2 188 190
2 183 191

VERTICES 192 384
1 0
1 1
1 2
1 3
1 4
1 5
1 6
1 7
1 8
1 9
1 10
1 11
1 12
1 13
1 14
1 15
1 16
1 17
1 18
1 19
1 20
1 21
1 22
1 23
1 24
1 25
1 26
1 27
1 28
1 29
1 30
1 31
1 32
1 33
1 34
1 35
1 36
1 37
1 38
1 39
1 40
1 41
1 42
1 43
1 44
1 45
1 46
1 47
1 48
1 49
1 50
1 51
1 52
1 53
1 54
1 55
1 56
1 57
1 58
1 59
1 60
1 61
1 62
1 63
1 64
1 65
1 66
1 67
1 68
1 69
1 70
1 71
1 72
1 73
1 74
1 75
1 76
1 77
1 78
1 79
1 80
1 81
1 82
1 83
1 84
1 85
1 86
1 87
1 88
1 89
1 90
1 91
1 92
1 93
1 94
1 95
1 96
1 97
1 98
1 99
1 100
1 101
1 102
1 103
1 104
1 105
1 106
1 107
1 108
1 109
1 110
1 111
1 112
1 113
1 114
1 115
1 116
1 117
1 118
1 119
1 120
1 121
1 122
1 123
1 124
1 125
1 126
1 127
1 128
1 129
1 130
1 131
1 132
1 133
1 134
1 135
1 136
1 137
1 138
1 139
1 140
1 141
1 142
1 143
1 144
1 145
1 146
1 147
1 148
1 149
1 150
1 151
1 152
1 153
1 154
1 155
1 156
1 157
1 158
1 159
1 160
1 161
1 162
1 163
1 164
1 165
1 166
1 167
1 168
1 169
1 170
1 171
1 172
1 173
1 174
1 175
1 176
1 177
1 178
1 179
1 180
1 181
1 182
1 183
1 184
1 185
1 186
1 187
1 188
1 189
1 190
1 191

POINT_DATA 192
SCALARS scalars float 1
LOOKUP_TABLE default
0.000000
0.000000
0.000000
0.000000
0.000000
0.000000
0.000000
0.000000
0.000000
0.000000
0.000000
0.000000
0.000000
0.000000
0.000000
0.000000
0.000000
0.000000
0.000000
0.000000
0.000000
0.000000
0.000000
0.000000
0.000000
0.000000
0.000000
0.000000
0.000000
0.000000
0.000000
0.000000
0.000000
0.000000
0.000000
0.000000
0.000000
0.000000
0.000000
0.000000
0.000000
0.000000
0.000000
0.000000
0.000000
0.000000
0.000000
0.000000
0.000000
0.000000
0.000000
0.000000
0.000000
0.000000
0.000000
0.000000
0.000000
0.000000
0.000000
0.000000
0.000000
0.000000
0.000000
0.000000
0.000000
0.000000
0.000000
0.000000
0.000000
0.000000
0.000000
0.000000
0.000000
0.000000
0.000000
0.000000
0.000000
0.000000
0.000000
0.000000
0.000000
0.000000
0.000000
0.000000
0.000000
0.000000
0.000000
0.000000
0.000000
0.000000
0.000000
0.000000
0.000000
0.000000
0.000000
0.000000
0.000000
0.000000
0.000000
0.000000
0.000000
0.000000
0.000000
0.000000
0.000000
0.000000
0.000000
0.000000
0.000000
0.000000
0.000000
0.000000
0.000000
0.000000
0.000000
0.000000
0.000000
0.000000
0.000000
0.000000
0.000000
0.000000
0.000000
0.000000
0.000000
0.000000
0.000000
0.000000
0.000000
0.000000
0.000000
0.000000
0.000000
0.000000
0.000000
0.000000
0.000000
0.000000
0.000000
0.000000
0.000000
0.000000
0.000000
0.000000
0.000000
0.000000
0.000000
0.000000
0.000000
0.000000
0.000000
0.000000
0.000000
0.000000
0.000000
0.000000
0.000000
0.000000
0.000000
0.000000
0.000000
0.000000
0.000000
0.000000
0.000000
0.000000
0.000000
0.000000
0.000000
0.000000
0.000000
0.000000
0.000000
0.000000
0.000000
0.000000
0.000000
0.000000
0.000000
0.000000
0.000000
0.000000
0.000000
0.000000
0.000000
0.000000
0.000000
0.000000
0.000000
0.000000
0.000000
0.000000
