# vtk DataFile Version 3.0
vtk output
ASCII
DATASET POLYDATA

POINTS 271 float
3115 66356 39884
3537 65802 39520
4422 64152 38740
5306 62700 38428
6217 61908 38662
7326 61578 39052
8382 61287 39390
9253 60918 39520
9372 62119 38740
9834 62568 38246
10956 60733 39780
11827 60931 40664
12606 62053 41990
12896 62568 42224
12975 60390 41392
13266 63426 42874
13794 60192 41964
14097 63954 43030
14929 64680 42952
15140 60363 42614
15470 65142 42770
16262 66171 42822
16605 60693 42926
16909 67069 43108
17358 68534 43810
17424 69735 44122
17661 79437 40170
17688 80520 40144
17780 70620 44044
17820 62594 38506
17952 70659 44616
18018 78487 40690
18097 60390 42432
18123 61881 39702
18176 60165 42536
18216 61538 41054
18295 62924 37544
18361 60931 41886
18480 77748 41184
18546 76164 43888
18546 71346 43706
18678 62779 36530
18717 75583 43888
18823 76929 41574
19008 70659 45266
19008 76058 42146
19113 75570 42666
19140 75108 43394
19272 59730 42432
19364 70118 45630
19364 72705 43186
19404 66224 38324
19641 74052 43082
19668 73035 43004
19958 58476 42510
20222 66224 37882
20790 57908 42432
20803 72732 43082
20803 66105 37648
20922 66066 37466
20988 69735 36764
21120 69471 37830
21252 68653 38584
21278 71372 41860
21318 71187 36114
21318 65907 37284
21357 71372 41522
21516 71834 42328
21516 65538 36972
21595 71108 36192
21608 71979 42276
21621 67980 39104
21648 56918 39936
21648 65274 36608
21714 71438 35932
21714 67161 32708
21740 63848 35282
21753 63439 35074
21819 64178 35256
21846 57222 39494
21859 65670 33774
21859 66132 33488
21872 66858 32812
21885 57195 40274
21912 57499 40820
21912 64587 36218
21925 56971 40768
21938 64746 35542
21951 76837 44434
21978 71953 42588
21978 56100 40768
21978 71570 43524
21978 68640 33202
22004 77510 43576
22004 64521 34372
22017 76731 44824
22017 71742 35438
22017 72085 35516
22044 58357 41730
22044 64521 35074
22044 65366 33774
22044 63043 34892
22057 64653 34216
22083 60786 31304
22110 77523 43160
22110 72494 35282
22123 71412 35412
22123 61116 31668
22136 58080 40768
22136 66409 33332
22149 68138 33254
22176 60390 31356
22189 66818 39676
22215 56694 39156
22215 64944 36660
22215 65604 36660
22242 61947 31746
22242 61525 31720
22255 72903 35230
22255 64812 33722
22255 59994 31330
22334 66211 36348
22374 72890 34866
22374 66765 33436
22374 67320 33280
22413 66924 36010
22466 71042 35516
22479 55532 41028
22506 68785 38532
22506 64812 36998
22506 70620 35594
22532 70237 35594
22545 62436 32136
22572 62607 41756
22572 68442 38038
22572 70620 46254
22572 77352 42848
22585 56337 39260
22585 68772 35542
22611 59004 41028
22611 59637 31408
22664 67610 35620
22664 69735 35464
22770 55849 38064
22770 70580 44278
22770 69273 35386
22783 61710 41184
22783 63756 32864
22783 62964 32136
22796 70369 45188
22796 63399 32474
22836 69828 47138
22836 64548 37544
22875 71055 35334
22968 60152 41106
22968 71055 35100
22968 64640 33384
22968 62634 31928
22981 54714 41314
23007 67320 33228
23047 73735 42692
23060 73009 42250
23100 62832 42640
23126 59334 31408
23166 71359 34658
23166 64680 33202
23192 61314 40924
23205 73009 41938
23232 77088 42822
23245 73009 41418
23298 77391 42822
23337 61446 40872
23337 67320 32968
23364 56232 39442
23364 71372 34372
23377 54054 41782
23403 64706 37518
23430 65564 40092
23443 76494 42640
23535 82275 42900
23535 62343 31564
23562 55915 39572
23562 81576 42588
23575 80520 42042
23628 73009 41158
23628 54714 37076
23628 64125 37674
23628 67597 33020
23628 64746 37232
23654 64020 39000
23667 76058 41990
23694 73299 40898
23694 67320 42978
23694 69247 45656
23694 64020 37934
23707 64693 33228
23707 63531 37882
23760 64099 38480
23773 81021 42328
23786 61683 31590
23839 68270 42692
23865 53552 43160
23865 69696 41834
23865 64086 39416
23892 62066 40638
23892 64706 36608
23905 68323 33072
23918 62660 37596
23958 75900 42432
23971 68310 44434
23984 79860 41730
23984 64086 39676
23997 66594 43082
23997 64020 40508
24024 65472 42588
24037 67082 43160
24037 63188 40690
24050 64363 36322
24063 64363 35880
24090 77761 42614
24090 71676 34372
24090 61208 31434
24090 62436 37440
24103 78870 42042
24116 69300 42198
24116 64508 33228
24156 70052 46072
24156 61736 37440
24169 68719 33254
24195 51480 38116
24222 64772 41834
24222 59017 36166
24288 68772 42276
24288 64363 35568
24288 59400 36192
24301 60918 31044
24327 53988 36556
24327 67650 43784
24380 72230 34684
24393 51849 37700
24393 61221 37076
24486 63980 35464
24499 60720 36816
24578 52074 37518
24591 60588 30914
24591 64429 33020
24618 60192 36556
24750 52206 37310
24750 63439 35594
24829 70052 46696
24829 63228 35750
24855 64178 32968
24908 59994 30966
25040 68745 41548
25093 59703 30940
25212 64257 33332
25212 62871 35646
25344 63505 35750
25476 64257 33592
25542 63927 35802
25581 63861 33332
25674 59532 30836
25674 64310 35828
25766 69300 41002
25806 62700 35646
25832 68996 47450
25845 69669 40846
25977 62475 35490
26294 62502 35074
26822 63003 34892
27192 63188 35204

LINES 269 807
2 1 0
2 2 1
2 3 2
2 4 3
2 5 4
2 6 5
2 7 6
2 10 7
2 6 8
2 8 9
2 11 10
2 14 11
2 11 12
2 12 13
2 16 14
2 13 15
2 19 16
2 15 17
2 17 18
2 22 19
2 18 20
2 20 21
2 32 22
2 21 23
2 23 24
2 24 25
2 31 26
2 26 27
2 25 28
2 33 29
2 28 30
2 38 31
2 34 32
2 35 33
2 48 34
2 37 35
2 29 36
2 32 37
2 43 38
2 42 39
2 28 40
2 36 41
2 47 42
2 45 43
2 30 44
2 46 45
2 47 46
2 52 47
2 54 48
2 44 49
2 40 50
2 55 51
2 53 52
2 50 53
2 56 54
2 58 55
2 53 57
2 59 58
2 65 59
2 61 60
2 62 61
2 71 62
2 67 63
2 60 64
2 68 65
2 63 66
2 70 67
2 73 68
2 74 69
2 89 70
2 112 71
2 83 72
2 85 73
2 97 74
2 82 75
2 78 76
2 76 77
2 99 78
2 72 79
2 113 79
2 100 80
2 80 81
2 109 82
2 84 83
2 86 84
2 114 85
2 90 86
2 85 87
2 93 88
2 91 89
2 127 90
2 57 91
2 110 92
2 104 93
2 99 94
2 88 95
2 106 96
2 96 97
2 87 99
2 119 100
2 77 101
2 94 102
2 107 103
2 136 104
2 97 105
2 126 106
2 117 107
2 84 108
2 139 108
2 81 109
2 124 110
2 103 111
2 177 112
2 129 114
2 114 115
2 132 116
2 116 117
2 105 118
2 102 119
2 111 120
2 115 121
2 118 122
2 109 123
2 123 124
2 121 125
2 130 126
2 158 127
2 71 128
2 152 129
2 131 130
2 142 131
2 148 132
2 146 133
2 128 134
2 149 135
2 170 136
2 113 137
2 141 138
2 98 139
2 120 140
2 125 141
2 145 142
2 113 143
2 91 144
2 138 145
2 171 146
2 165 147
2 150 148
2 144 149
2 147 150
2 135 151
2 186 152
2 126 153
2 139 154
2 153 155
2 119 156
2 148 157
2 175 158
2 124 159
2 91 160
2 160 161
2 133 162
2 140 163
2 155 164
2 156 165
2 154 166
2 161 167
2 178 168
2 167 169
2 168 170
2 166 171
2 159 172
2 137 173
2 164 174
2 152 176
2 213 177
2 208 178
2 182 179
2 157 180
2 173 181
2 198 182
2 210 183
2 169 184
2 143 185
2 194 186
2 172 187
2 176 188
2 203 189
2 208 190
2 184 191
2 215 192
2 209 193
2 197 194
2 165 195
2 186 196
2 189 197
2 183 198
2 180 199
2 192 200
2 175 201
2 224 202
2 211 203
2 171 204
2 188 205
2 187 206
2 196 207
2 160 208
2 237 209
2 223 210
2 213 211
2 214 212
2 216 213
2 230 214
2 212 215
2 204 216
2 205 217
2 217 218
2 170 219
2 174 220
2 199 221
2 207 222
2 219 223
2 232 224
2 195 225
2 193 226
2 222 227
2 206 228
2 239 229
2 213 230
2 234 231
2 200 232
2 218 233
2 246 234
2 221 235
2 185 236
2 215 237
2 220 238
2 243 239
2 227 240
2 233 241
2 240 242
2 247 243
2 235 244
2 225 245
2 242 246
2 236 247
2 241 248
2 226 249
2 248 250
2 245 251
2 244 252
2 232 253
2 252 254
2 251 255
2 250 256
2 250 257
2 255 258
2 257 259
2 258 260
2 254 261
2 259 262
2 253 263
2 256 264
2 249 265
2 263 266
2 264 267
2 267 268
2 268 269
2 269 270

VERTICES 271 542
1 0
1 1
1 2
1 3
1 4
1 5
1 6
1 7
1 8
1 9
1 10
1 11
1 12
1 13
1 14
1 15
1 16
1 17
1 18
1 19
1 20
1 21
1 22
1 23
1 24
1 25
1 26
1 27
1 28
1 29
1 30
1 31
1 32
1 33
1 34
1 35
1 36
1 37
1 38
1 39
1 40
1 41
1 42
1 43
1 44
1 45
1 46
1 47
1 48
1 49
1 50
1 51
1 52
1 53
1 54
1 55
1 56
1 57
1 58
1 59
1 60
1 61
1 62
1 63
1 64
1 65
1 66
1 67
1 68
1 69
1 70
1 71
1 72
1 73
1 74
1 75
1 76
1 77
1 78
1 79
1 80
1 81
1 82
1 83
1 84
1 85
1 86
1 87
1 88
1 89
1 90
1 91
1 92
1 93
1 94
1 95
1 96
1 97
1 98
1 99
1 100
1 101
1 102
1 103
1 104
1 105
1 106
1 107
1 108
1 109
1 110
1 111
1 112
1 113
1 114
1 115
1 116
1 117
1 118
1 119
1 120
1 121
1 122
1 123
1 124
1 125
1 126
1 127
1 128
1 129
1 130
1 131
1 132
1 133
1 134
1 135
1 136
1 137
1 138
1 139
1 140
1 141
1 142
1 143
1 144
1 145
1 146
1 147
1 148
1 149
1 150
1 151
1 152
1 153
1 154
1 155
1 156
1 157
1 158
1 159
1 160
1 161
1 162
1 163
1 164
1 165
1 166
1 167
1 168
1 169
1 170
1 171
1 172
1 173
1 174
1 175
1 176
1 177
1 178
1 179
1 180
1 181
1 182
1 183
1 184
1 185
1 186
1 187
1 188
1 189
1 190
1 191
1 192
1 193
1 194
1 195
1 196
1 197
1 198
1 199
1 200
1 201
1 202
1 203
1 204
1 205
1 206
1 207
1 208
1 209
1 210
1 211
1 212
1 213
1 214
1 215
1 216
1 217
1 218
1 219
1 220
1 221
1 222
1 223
1 224
1 225
1 226
1 227
1 228
1 229
1 230
1 231
1 232
1 233
1 234
1 235
1 236
1 237
1 238
1 239
1 240
1 241
1 242
1 243
1 244
1 245
1 246
1 247
1 248
1 249
1 250
1 251
1 252
1 253
1 254
1 255
1 256
1 257
1 258
1 259
1 260
1 261
1 262
1 263
1 264
1 265
1 266
1 267
1 268
1 269
1 270

POINT_DATA 271
SCALARS scalars float 1
LOOKUP_TABLE default
0.000000
0.000000
0.000000
0.000000
0.000000
0.000000
0.000000
0.000000
0.000000
0.000000
0.000000
0.000000
0.000000
0.000000
0.000000
0.000000
0.000000
0.000000
0.000000
0.000000
0.000000
0.000000
0.000000
0.000000
0.000000
0.000000
0.000000
0.000000
0.000000
0.000000
0.000000
0.000000
0.000000
0.000000
0.000000
0.000000
0.000000
0.000000
0.000000
0.000000
0.000000
0.000000
0.000000
0.000000
0.000000
0.000000
0.000000
0.000000
0.000000
0.000000
0.000000
0.000000
0.000000
0.000000
0.000000
0.000000
0.000000
0.000000
0.000000
0.000000
0.000000
0.000000
0.000000
0.000000
0.000000
0.000000
0.000000
0.000000
0.000000
0.000000
0.000000
0.000000
0.000000
0.000000
0.000000
0.000000
0.000000
0.000000
0.000000
0.000000
0.000000
0.000000
0.000000
0.000000
0.000000
0.000000
0.000000
0.000000
0.000000
0.000000
0.000000
0.000000
0.000000
0.000000
0.000000
0.000000
0.000000
0.000000
0.000000
0.000000
0.000000
0.000000
0.000000
0.000000
0.000000
0.000000
0.000000
0.000000
0.000000
0.000000
0.000000
0.000000
0.000000
0.000000
0.000000
0.000000
0.000000
0.000000
0.000000
0.000000
0.000000
0.000000
0.000000
0.000000
0.000000
0.000000
0.000000
0.000000
0.000000
0.000000
0.000000
0.000000
0.000000
0.000000
0.000000
0.000000
0.000000
0.000000
0.000000
0.000000
0.000000
0.000000
0.000000
0.000000
0.000000
0.000000
0.000000
0.000000
0.000000
0.000000
0.000000
0.000000
0.000000
0.000000
0.000000
0.000000
0.000000
0.000000
0.000000
0.000000
0.000000
0.000000
0.000000
0.000000
0.000000
0.000000
0.000000
0.000000
0.000000
0.000000
0.000000
0.000000
0.000000
0.000000
0.000000
0.000000
0.000000
0.000000
0.000000
0.000000
0.000000
0.000000
0.000000
0.000000
0.000000
0.000000
0.000000
0.000000
0.000000
0.000000
0.000000
0.000000
0.000000
0.000000
0.000000
0.000000
0.000000
0.000000
0.000000
0.000000
0.000000
0.000000
0.000000
0.000000
0.000000
0.000000
0.000000
0.000000
0.000000
0.000000
0.000000
0.000000
0.000000
0.000000
0.000000
0.000000
0.000000
0.000000
0.000000
0.000000
0.000000
0.000000
0.000000
0.000000
0.000000
0.000000
0.000000
0.000000
0.000000
0.000000
0.000000
0.000000
0.000000
0.000000
0.000000
0.000000
0.000000
0.000000
0.000000
0.000000
0.000000
0.000000
0.000000
0.000000
0.000000
0.000000
0.000000
0.000000
0.000000
0.000000
0.000000
0.000000
0.000000
0.000000
0.000000
0.000000
0.000000
0.000000
0.000000
0.000000
0.000000
0.000000
0.000000
0.000000
0.000000
0.000000
0.000000
0.000000
0.000000
0.000000
0.000000
