# vtk DataFile Version 3.0
vtk output
ASCII
DATASET POLYDATA

POINTS 247 float
4712 82830 51220
13609 74527 52624
19760 73458 56576
18216 84757 55744
18625 84480 56030
15272 67188 53560
13398 74804 44642
13965 70989 45630
13556 73656 54132
14097 74817 56992
18295 84519 56186
17529 69141 52910
17899 70791 52858
18810 71161 52780
17292 71346 52364
17569 80823 54548
18744 81708 54418
13543 72732 47476
11510 71808 45240
12144 72204 44876
12896 72098 44850
13371 70580 44928
13266 69009 43680
13305 69524 43264
12817 69300 42640
12764 69498 43732
13688 66805 43602
13411 67386 43680
14229 67320 43992
16658 65538 46254
19008 65234 47502
19945 64020 47528
15813 81668 50284
15114 80652 50310
15312 78738 53014
24987 73471 55042
25634 71649 55796
26360 70118 55744
22242 70303 55172
23654 70752 55770
12672 68072 51376
13596 65973 52130
13134 63888 52624
8910 80295 51740
9807 79952 51532
13068 80665 50700
16790 80071 53014
19166 83305 54990
17886 83358 54704
12870 86552 48074
14097 85206 47632
15615 83529 45864
14744 84427 43030
14916 84717 43290
15008 85087 41548
10124 80493 50960
10388 78553 51428
10467 78249 50336
13543 79569 51090
17490 75517 44096
16869 75187 43680
16777 71966 42952
16869 72956 42744
14454 70263 42276
15417 67280 41574
18625 68521 45110
14625 80322 48490
14850 80480 49972
11444 79160 51142
9583 80665 52026
13952 77972 50258
12936 80137 51064
15576 81879 51168
18189 82896 50414
18031 83173 51194
19377 85338 50882
20130 89034 51792
19813 88440 51428
12474 68904 43316
16592 65142 45968
20156 64970 47138
20592 64191 47502
20288 63518 46254
21806 62409 45682
14401 85760 41652
15549 85813 43186
16764 84678 45656
14850 86064 48022
14348 86552 46696
14810 87661 49374
14282 86552 49088
11946 87476 47060
16671 82117 46618
14229 75187 51532
14691 75253 51974
15840 75240 48022
16011 74487 48360
14348 73128 47112
14388 72375 47320
14467 72349 45786
13675 70884 44330
13332 71121 44564
13200 71676 44980
12355 71478 45032
14124 73933 50388
14124 74184 54288
14058 74910 52780
14520 73497 55406
14137 72666 54912
13926 74184 54574
13662 81048 50830
10758 79622 50726
19272 71082 48308
19668 71227 48750
20011 75279 45838
17094 83767 46358
16803 83450 46956
14876 79741 42198
13305 75174 44486
13332 74395 44798
12883 79477 42224
12157 78408 40612
12896 78500 42042
12606 77695 40820
11985 78051 41522
13226 78289 40820
12183 79239 41314
13213 78078 41340
14955 77629 42640
14348 78144 42900
14744 77682 43342
14691 79398 41912
17094 83226 45708
14810 84572 40742
14625 84744 41548
9979 76758 49322
14256 74316 52962
22770 70725 55146
24816 74514 56160
22532 78289 53742
9504 79160 51454
9834 80652 50830
9966 83820 53690
10164 79767 50362
10467 75649 49504
11642 79754 50752
12355 79147 51246
15840 79266 52338
15998 78738 53300
18612 82447 55484
14414 74527 50440
11946 72943 48828
12223 74448 49062
11259 72507 49218
11127 73154 49634
12210 79741 51818
12540 80493 52598
12672 84097 53482
13464 81180 53976
14388 73392 50518
13200 70303 49972
13490 69894 50180
13173 70976 50700
13266 68349 51298
13437 66871 51792
12223 64297 52572
12381 64020 53066
18084 77167 50830
18585 74382 50648
18018 75121 50414
19008 78711 50544
18348 78368 49634
19377 79701 49530
16830 72349 51272
17490 70554 51584
17965 71966 51792
17490 67821 51948
20394 70026 54054
20064 69445 54496
21159 69247 55354
20433 70158 55822
19826 72811 56758
20565 71715 57330
19338 74580 56420
19166 74646 55718
18744 76164 55276
18559 75319 54704
25476 72138 55250
24750 75530 56524
25106 76837 55484
23403 78817 54834
22440 79371 53716
21199 76626 52702
23126 70950 49842
21978 71491 50544
21410 78078 53014
17820 84321 51090
19179 85113 50232
19773 86473 51168
15536 79794 48594
15272 80916 47996
15747 81483 47970
18414 79820 47710
18295 78012 46878
19536 75332 46150
23258 70118 49504
20275 74052 45812
20658 73418 47944
16869 71649 44694
16236 79464 47164
16328 80559 46696
16249 79464 46124
15879 79596 45526
12619 79081 41028
12830 79464 41626
15800 78342 42900
15972 83833 44850
15061 84651 43914
15338 84150 43186
16104 84876 42666
12830 87687 39884
15444 84295 39858
15813 86275 37674
14757 84612 39182
14322 86037 42172
15945 84546 43550
14190 85892 42614
15576 84981 42250
24618 77022 55146
23958 76824 54782
23720 78170 54444
23628 75253 56420
17846 67135 52286
16843 72138 51506
16130 67874 53248
16434 73194 51142
17595 70395 51142
17688 68706 51844
16962 76863 51844
16935 77418 51662
20077 70369 53274
15444 68019 52078
16038 85773 37258
12315 67821 43264
14137 73893 56940
16975 72072 42614
12738 68930 41678

VERTICES 247 494
1 0
1 1
1 2
1 3
1 4
1 5
1 6
1 7
1 8
1 9
1 10
1 11
1 12
1 13
1 14
1 15
1 16
1 17
1 18
1 19
1 20
1 21
1 22
1 23
1 24
1 25
1 26
1 27
1 28
1 29
1 30
1 31
1 32
1 33
1 34
1 35
1 36
1 37
1 38
1 39
1 40
1 41
1 42
1 43
1 44
1 45
1 46
1 47
1 48
1 49
1 50
1 51
1 52
1 53
1 54
1 55
1 56
1 57
1 58
1 59
1 60
1 61
1 62
1 63
1 64
1 65
1 66
1 67
1 68
1 69
1 70
1 71
1 72
1 73
1 74
1 75
1 76
1 77
1 78
1 79
1 80
1 81
1 82
1 83
1 84
1 85
1 86
1 87
1 88
1 89
1 90
1 91
1 92
1 93
1 94
1 95
1 96
1 97
1 98
1 99
1 100
1 101
1 102
1 103
1 104
1 105
1 106
1 107
1 108
1 109
1 110
1 111
1 112
1 113
1 114
1 115
1 116
1 117
1 118
1 119
1 120
1 121
1 122
1 123
1 124
1 125
1 126
1 127
1 128
1 129
1 130
1 131
1 132
1 133
1 134
1 135
1 136
1 137
1 138
1 139
1 140
1 141
1 142
1 143
1 144
1 145
1 146
1 147
1 148
1 149
1 150
1 151
1 152
1 153
1 154
1 155
1 156
1 157
1 158
1 159
1 160
1 161
1 162
1 163
1 164
1 165
1 166
1 167
1 168
1 169
1 170
1 171
1 172
1 173
1 174
1 175
1 176
1 177
1 178
1 179
1 180
1 181
1 182
1 183
1 184
1 185
1 186
1 187
1 188
1 189
1 190
1 191
1 192
1 193
1 194
1 195
1 196
1 197
1 198
1 199
1 200
1 201
1 202
1 203
1 204
1 205
1 206
1 207
1 208
1 209
1 210
1 211
1 212
1 213
1 214
1 215
1 216
1 217
1 218
1 219
1 220
1 221
1 222
1 223
1 224
1 225
1 226
1 227
1 228
1 229
1 230
1 231
1 232
1 233
1 234
1 235
1 236
1 237
1 238
1 239
1 240
1 241
1 242
1 243
1 244
1 245
1 246

POINT_DATA 247
SCALARS scalars float 1
LOOKUP_TABLE default
0.500000
0.500000
0.500000
0.500000
0.500000
0.500000
0.500000
0.500000
0.500000
0.500000
0.500000
0.500000
0.500000
0.500000
0.500000
0.500000
0.500000
0.500000
0.500000
0.500000
0.500000
0.500000
0.500000
0.500000
0.500000
0.500000
0.500000
0.500000
0.500000
0.500000
0.500000
0.500000
0.500000
0.500000
0.500000
0.500000
0.500000
0.500000
0.500000
0.500000
0.500000
0.500000
0.500000
0.500000
0.500000
0.500000
0.500000
0.500000
0.500000
0.500000
0.500000
0.500000
0.500000
0.500000
0.500000
0.500000
0.500000
0.500000
0.500000
0.500000
0.500000
0.500000
0.500000
0.500000
0.500000
0.500000
0.500000
0.500000
0.500000
0.500000
0.500000
0.500000
0.500000
0.500000
0.500000
0.500000
0.500000
0.500000
0.500000
0.500000
0.500000
0.500000
0.500000
0.500000
0.500000
0.500000
0.500000
0.500000
0.500000
0.500000
0.500000
0.500000
0.500000
0.500000
0.500000
0.500000
0.500000
0.500000
0.500000
0.500000
0.500000
0.500000
0.500000
0.500000
0.500000
0.500000
0.500000
0.500000
0.500000
0.500000
0.500000
0.500000
0.500000
0.500000
0.500000
0.500000
0.500000
0.500000
0.500000
0.500000
0.500000
0.500000
0.500000
0.500000
0.500000
0.500000
0.500000
0.500000
0.500000
0.500000
0.500000
0.500000
0.500000
0.500000
0.500000
0.500000
0.500000
0.500000
0.500000
0.500000
0.500000
0.500000
0.500000
0.500000
0.500000
0.500000
0.500000
0.500000
0.500000
0.500000
0.500000
0.500000
0.500000
0.500000
0.500000
0.500000
0.500000
0.500000
0.500000
0.500000
0.500000
0.500000
0.500000
0.500000
0.500000
0.500000
0.500000
0.500000
0.500000
0.500000
0.500000
0.500000
0.500000
0.500000
0.500000
0.500000
0.500000
0.500000
0.500000
0.500000
0.500000
0.500000
0.500000
0.500000
0.500000
0.500000
0.500000
0.500000
0.500000
0.500000
0.500000
0.500000
0.500000
0.500000
0.500000
0.500000
0.500000
0.500000
0.500000
0.500000
0.500000
0.500000
0.500000
0.500000
0.500000
0.500000
0.500000
0.500000
0.500000
0.500000
0.500000
0.500000
0.500000
0.500000
0.500000
0.500000
0.500000
0.500000
0.500000
0.500000
0.500000
0.500000
0.500000
0.500000
0.500000
0.500000
0.500000
0.500000
0.500000
0.500000
0.500000
0.500000
0.500000
0.500000
0.500000
0.500000
0.500000
0.500000
0.500000
0.500000
0.500000
0.500000
0.500000
0.500000
0.500000
0.500000
0.500000
