# vtk DataFile Version 3.0
vtk output
ASCII
DATASET POLYDATA

POINTS 261 float
5478 103316 49764
11814 99264 51844
17899 104306 52416
21384 96861 46540
20341 94050 46254
19958 95040 45864
19892 94538 45916
16869 92030 48022
16632 92532 49608
16381 90037 49816
13464 91106 49452
14097 91581 49218
13860 98221 48724
10692 102854 49348
20526 91964 48048
19047 93126 47996
20288 88255 49192
14652 111210 44278
14097 102366 56446
14203 102326 57356
15114 102049 57304
16130 92096 49400
13200 107395 46722
15417 107250 41158
12540 108517 44356
13200 107949 44304
16249 106524 40326
15734 105666 40534
16513 105600 40222
15840 105547 40664
10665 108438 44408
9741 108847 44044
12170 106141 46150
12236 106735 45734
11220 106524 46748
10428 108847 43706
13464 108319 46228
13015 108781 43108
13437 107395 42614
14058 107606 41366
11220 102300 49634
12896 99673 53300
13833 99145 53846
15536 98010 53638
16566 96465 52364
12408 109824 51688
12540 106722 49998
12606 106484 50726
15087 104874 51558
16790 104742 52338
18638 92796 47866
19338 92030 47268
20394 91423 47892
20460 88902 48438
20169 88770 48854
20407 87793 49478
20605 88836 50726
16605 100953 49764
15972 102392 49686
13728 104280 47138
13767 105270 47164
13068 103501 47346
8580 102379 48412
8870 101402 48880
8778 103131 49738
12183 109111 51818
12751 108741 43550
13160 108108 43836
13173 106154 48958
13266 108992 47242
14533 108913 47840
13530 108213 43264
13530 108042 46176
17028 101376 50076
14361 102828 56628
17173 95647 52676
16790 96980 53534
13701 99858 53534
13464 99752 53248
12738 99686 52832
13992 107910 53092
12540 103316 52754
12289 102643 53040
11972 101323 52988
21080 92347 45890
21001 92004 46228
16473 91977 49114
12434 92281 46592
8989 98340 48932
8580 97231 48464
13464 99541 48984
8949 101996 49686
7854 101600 49686
7722 103118 49842
8659 99924 49686
8817 97614 48932
8408 96769 48906
8408 95172 48178
8738 94947 47580
8857 94855 46878
12012 92136 46800
12421 91568 46514
10560 103092 48802
10771 105204 49530
10296 105296 49062
11088 105877 48802
10560 101257 49062
9979 97218 49686
10626 97653 49712
11946 100386 49712
12051 100557 49972
12025 100782 51038
11893 98538 52234
10824 97218 53118
10296 97178 54106
12381 101046 49478
12236 90855 48672
20460 88110 50544
20460 93667 46852
21727 95304 46930
20750 96360 46930
15523 103976 47398
16605 104478 47138
12315 106458 47060
18823 102564 51948
17912 101653 50674
13371 102234 49062
14467 104742 56810
13794 102075 55016
17688 96637 50674
17490 96835 51636
12975 100465 53248
12408 99726 51870
20526 87819 50726
20486 87846 50336
17226 92875 48516
15180 92928 48854
14163 106062 55588
20486 107527 52156
17833 105204 51974
17754 104610 51870
17463 105164 52598
15114 105758 51688
12540 106788 51012
13160 107223 50362
12408 109388 52104
14876 112134 44096
13609 110814 44252
13926 111606 44434
13490 109929 45240
13530 109388 46774
13358 109890 46800
14058 109335 47190
12751 110220 47320
13860 105864 48880
13028 107157 49426
14084 105930 50882
13041 105956 50960
12170 108900 51610
12698 111249 47086
13635 104029 47424
13992 102102 49530
14005 101640 49114
14797 102498 49608
15721 102524 49166
15972 103184 49816
16328 102234 49348
16170 100122 59436
15417 100689 60242
16038 100980 60346
13992 106101 57382
14005 105798 57018
13728 101283 53482
14454 101521 53456
13728 102630 54392
14823 102194 56160
16302 101257 59696
12685 103527 48620
11088 100848 49426
10824 102458 49660
8712 98736 49114
8223 97851 48698
8157 95515 48464
8857 94393 47606
11180 92888 46306
15787 101508 49452
13860 102458 53274
14256 101151 54444
11655 100267 51740
11444 100980 50570
9517 102207 49686
11484 101125 49166
10441 102207 49816
8514 101772 48854
8091 102366 48568
8263 100663 49478
9213 96690 48230
8553 96109 47840
9768 94050 47060
9451 95317 46982
10309 94248 44564
9966 94248 45084
10850 94617 44122
10758 94908 44616
10494 106207 48620
10243 103422 48724
14269 106286 49166
12962 106220 51454
16315 104689 51636
18229 107184 53040
19140 108121 52234
14256 99567 48958
13358 98934 49270
10784 100584 49608
13596 99924 48516
13965 99422 48802
13662 96901 49400
14335 95779 49504
14823 95898 49296
15589 94789 48750
14335 95502 48646
15074 94446 48568
15576 94010 48464
15840 93693 49530
14005 95634 49400
13833 97851 49504
13081 98696 48802
12975 99501 48672
11550 100122 50752
14269 100056 54340
15048 98538 54756
15378 98300 53560
15523 97191 54106
15906 97614 54158
17199 96637 53248
16698 96228 53118
17239 97297 52208
16460 100848 54080
16764 100914 53820
15813 97363 53300
15153 98274 54574
15048 101851 54288
14652 106682 57512
14982 106286 57460
14784 106286 57148
17846 106286 52416
14850 105349 51948
17199 105032 51740
17952 106563 52832
18572 103026 51870
18744 102234 52494
16051 104900 47164
13530 109956 44694
11444 101389 50258
15919 104544 52052
16051 92677 49192
21516 90948 47450
19760 89799 48100
15312 93693 49192
18506 92571 47632
15866 101468 48854

VERTICES 261 522
1 0
1 1
1 2
1 3
1 4
1 5
1 6
1 7
1 8
1 9
1 10
1 11
1 12
1 13
1 14
1 15
1 16
1 17
1 18
1 19
1 20
1 21
1 22
1 23
1 24
1 25
1 26
1 27
1 28
1 29
1 30
1 31
1 32
1 33
1 34
1 35
1 36
1 37
1 38
1 39
1 40
1 41
1 42
1 43
1 44
1 45
1 46
1 47
1 48
1 49
1 50
1 51
1 52
1 53
1 54
1 55
1 56
1 57
1 58
1 59
1 60
1 61
1 62
1 63
1 64
1 65
1 66
1 67
1 68
1 69
1 70
1 71
1 72
1 73
1 74
1 75
1 76
1 77
1 78
1 79
1 80
1 81
1 82
1 83
1 84
1 85
1 86
1 87
1 88
1 89
1 90
1 91
1 92
1 93
1 94
1 95
1 96
1 97
1 98
1 99
1 100
1 101
1 102
1 103
1 104
1 105
1 106
1 107
1 108
1 109
1 110
1 111
1 112
1 113
1 114
1 115
1 116
1 117
1 118
1 119
1 120
1 121
1 122
1 123
1 124
1 125
1 126
1 127
1 128
1 129
1 130
1 131
1 132
1 133
1 134
1 135
1 136
1 137
1 138
1 139
1 140
1 141
1 142
1 143
1 144
1 145
1 146
1 147
1 148
1 149
1 150
1 151
1 152
1 153
1 154
1 155
1 156
1 157
1 158
1 159
1 160
1 161
1 162
1 163
1 164
1 165
1 166
1 167
1 168
1 169
1 170
1 171
1 172
1 173
1 174
1 175
1 176
1 177
1 178
1 179
1 180
1 181
1 182
1 183
1 184
1 185
1 186
1 187
1 188
1 189
1 190
1 191
1 192
1 193
1 194
1 195
1 196
1 197
1 198
1 199
1 200
1 201
1 202
1 203
1 204
1 205
1 206
1 207
1 208
1 209
1 210
1 211
1 212
1 213
1 214
1 215
1 216
1 217
1 218
1 219
1 220
1 221
1 222
1 223
1 224
1 225
1 226
1 227
1 228
1 229
1 230
1 231
1 232
1 233
1 234
1 235
1 236
1 237
1 238
1 239
1 240
1 241
1 242
1 243
1 244
1 245
1 246
1 247
1 248
1 249
1 250
1 251
1 252
1 253
1 254
1 255
1 256
1 257
1 258
1 259
1 260

POINT_DATA 261
SCALARS scalars float 1
LOOKUP_TABLE default
0.500000
0.500000
0.500000
0.500000
0.500000
0.500000
0.500000
0.500000
0.500000
0.500000
0.500000
0.500000
0.500000
0.500000
0.500000
0.500000
0.500000
0.500000
0.500000
0.500000
0.500000
0.500000
0.500000
0.500000
0.500000
0.500000
0.500000
0.500000
0.500000
0.500000
0.500000
0.500000
0.500000
0.500000
0.500000
0.500000
0.500000
0.500000
0.500000
0.500000
0.500000
0.500000
0.500000
0.500000
0.500000
0.500000
0.500000
0.500000
0.500000
0.500000
0.500000
0.500000
0.500000
0.500000
0.500000
0.500000
0.500000
0.500000
0.500000
0.500000
0.500000
0.500000
0.500000
0.500000
0.500000
0.500000
0.500000
0.500000
0.500000
0.500000
0.500000
0.500000
0.500000
0.500000
0.500000
0.500000
0.500000
0.500000
0.500000
0.500000
0.500000
0.500000
0.500000
0.500000
0.500000
0.500000
0.500000
0.500000
0.500000
0.500000
0.500000
0.500000
0.500000
0.500000
0.500000
0.500000
0.500000
0.500000
0.500000
0.500000
0.500000
0.500000
0.500000
0.500000
0.500000
0.500000
0.500000
0.500000
0.500000
0.500000
0.500000
0.500000
0.500000
0.500000
0.500000
0.500000
0.500000
0.500000
0.500000
0.500000
0.500000
0.500000
0.500000
0.500000
0.500000
0.500000
0.500000
0.500000
0.500000
0.500000
0.500000
0.500000
0.500000
0.500000
0.500000
0.500000
0.500000
0.500000
0.500000
0.500000
0.500000
0.500000
0.500000
0.500000
0.500000
0.500000
0.500000
0.500000
0.500000
0.500000
0.500000
0.500000
0.500000
0.500000
0.500000
0.500000
0.500000
0.500000
0.500000
0.500000
0.500000
0.500000
0.500000
0.500000
0.500000
0.500000
0.500000
0.500000
0.500000
0.500000
0.500000
0.500000
0.500000
0.500000
0.500000
0.500000
0.500000
0.500000
0.500000
0.500000
0.500000
0.500000
0.500000
0.500000
0.500000
0.500000
0.500000
0.500000
0.500000
0.500000
0.500000
0.500000
0.500000
0.500000
0.500000
0.500000
0.500000
0.500000
0.500000
0.500000
0.500000
0.500000
0.500000
0.500000
0.500000
0.500000
0.500000
0.500000
0.500000
0.500000
0.500000
0.500000
0.500000
0.500000
0.500000
0.500000
0.500000
0.500000
0.500000
0.500000
0.500000
0.500000
0.500000
0.500000
0.500000
0.500000
0.500000
0.500000
0.500000
0.500000
0.500000
0.500000
0.500000
0.500000
0.500000
0.500000
0.500000
0.500000
0.500000
0.500000
0.500000
0.500000
0.500000
0.500000
0.500000
0.500000
0.500000
0.500000
0.500000
0.500000
0.500000
0.500000
0.500000
0.500000
0.500000
0.500000
0.500000
0.500000
0.500000
0.500000
0.500000
