# vtk DataFile Version 3.0
vtk output
ASCII
DATASET POLYDATA

POINTS 199 float
8263 95330 47762
8316 102273 49218
8395 100650 49504
8421 96188 48282
8487 95106 47606
8685 94208 46462
8778 99765 49608
8778 94578 47112
8844 94129 46930
8910 94248 46202
9240 94142 45786
9543 96109 54418
9596 94155 45552
9873 106101 48126
10032 93601 47216
10032 109269 43836
10164 98762 49322
10164 97218 49738
10203 96954 53690
10243 98036 49504
10243 103158 49296
10256 99792 49530
10296 99198 49452
10296 108530 44044
10309 103461 49010
10388 100491 49426
10428 93297 46930
10428 102141 49296
10441 103923 49036
10494 104385 49374
10533 105600 48568
10705 105481 49036
10758 100927 49322
10784 94353 44668
10797 107976 44954
10982 92901 46930
10982 107487 45474
11154 107052 45812
11312 98538 53222
11378 106273 40872
11418 91106 46358
11418 106524 46592
11484 101574 49504
11550 98670 52728
11550 106682 45942
11761 92268 46488
11774 99805 51714
11774 106854 41158
11840 99343 51896
11880 98868 52156
11906 106920 41860
12012 91476 46592
12012 107659 42562
12012 106088 47086
12144 103026 53066
12249 99805 52338
12276 101244 53066
12276 107421 50908
12289 91423 48724
12408 102643 48542
12408 108900 51402
12421 105798 53170
12421 109692 52182
12474 103567 52442
12500 100227 49478
12500 110127 52208
12540 111104 52702
12672 111144 47034
12751 108147 44434
12804 100082 53326
12804 108253 43550
12830 103395 47970
12830 107012 50232
12883 108253 42926
12896 106801 53222
12936 99831 49036
12936 90816 49114
12949 108253 45136
12949 105177 47164
12949 107012 49738
12949 110484 46930
13028 108636 45630
13068 102458 48724
13173 109586 45292
13266 100161 53534
13358 109520 46878
13358 106220 50960
13371 107949 46514
13398 104583 47372
13398 91093 49140
13424 91212 49218
13437 107316 46852
13477 100425 53794
13543 110220 44902
13556 106339 48906
13596 106326 48230
13609 107474 53326
13662 109190 47450
13662 105283 47892
13754 106392 47346
13794 98709 48958
13794 107553 42328
13820 101838 54158
13860 99620 53794
13965 96914 49192
14031 98102 49140
14084 102141 49192
14124 104451 47450
14137 105639 56446
14216 92017 49140
14216 101970 54314
14256 111170 44590
14256 108187 52780
14269 101798 56264
14322 99963 54288
14322 108939 47918
14322 105626 51454
14348 105732 56966
14388 95436 49114
14414 106194 55848
14414 101970 56862
14414 107448 41366
14520 106286 57668
14652 104174 56940
14652 102260 49738
14757 106273 55120
14784 112041 44330
14850 94749 48828
14916 93271 48802
14916 98934 54236
14929 101508 57070
14942 112358 44356
14955 108266 52182
15114 105032 51792
15153 100821 58760
15378 104346 47450
15457 107210 40638
15470 93997 49036
15615 98551 54028
15681 100610 59852
15721 102669 49764
15840 103554 49764
15906 101772 49114
16077 97257 53508
16143 104280 47112
16143 106154 40196
16143 100095 53950
16328 101521 49686
16341 90921 49452
16368 93284 48984
16407 100716 59852
16434 92598 49400
16500 90486 49530
16500 104478 46644
16539 90169 49452
16658 96690 53118
16671 89839 49504
16737 104583 52000
16764 92637 48984
16803 101112 54210
17067 96360 52572
17265 104478 51714
17292 96518 52078
17424 96888 50310
17516 101349 51376
17556 105032 52312
17648 102036 50804
17767 97112 50102
18282 106524 52676
18348 103422 51740
18414 91806 48776
18414 107012 53144
18546 102432 51974
18546 101838 52468
18585 107580 53560
19008 101178 53170
19034 90301 48048
19206 107778 52494
19272 91621 47970
19470 89496 48126
19734 92017 47970
19734 100821 53768
20064 93522 47424
20064 101046 54288
20262 107606 52130
20328 87991 48620
20394 88004 49816
20394 91872 47294
20658 88004 50752
20724 95119 47060
20724 94947 45162
20856 95370 45604
20948 95594 46332
21067 88189 51350
21120 88123 51740
21133 92096 46358
21608 92835 45448
21727 93139 44356
21912 92862 44720

LINES 195 585
2 3 0
2 1 2
2 0 4
2 8 5
2 2 6
2 4 7
2 7 8
2 5 9
2 9 10
2 18 11
2 10 12
2 30 13
2 8 14
2 23 15
2 22 16
2 19 17
2 38 18
2 16 19
2 27 20
2 25 21
2 21 22
2 34 23
2 20 24
2 32 25
2 14 26
2 1 27
2 24 28
2 28 29
2 31 30
2 29 31
2 27 32
2 12 33
2 36 34
2 26 35
2 37 36
2 44 37
2 43 38
2 47 39
2 51 40
2 53 41
2 27 42
2 49 43
2 41 44
2 35 45
2 42 46
2 50 47
2 46 49
2 52 50
2 45 51
2 73 52
2 78 53
2 56 54
2 46 55
2 55 56
2 72 57
2 76 58
2 27 59
2 57 60
2 63 61
2 60 62
2 54 63
2 42 64
2 62 65
2 65 66
2 80 67
2 77 68
2 55 69
2 68 70
2 59 71
2 79 72
2 70 73
2 61 74
2 64 75
2 89 76
2 81 77
2 88 78
2 94 79
2 85 80
2 87 81
2 59 82
2 81 83
2 69 84
2 87 85
2 72 86
2 91 87
2 71 88
2 90 89
2 109 90
2 99 91
2 84 92
2 83 93
2 95 94
2 98 95
2 74 96
2 85 97
2 88 98
2 88 99
2 73 101
2 92 102
2 92 103
2 105 104
2 100 105
2 82 106
2 88 107
2 117 108
2 128 109
2 102 110
2 93 111
2 96 112
2 110 113
2 103 114
2 97 115
2 86 116
2 123 117
2 104 118
2 108 119
2 113 120
2 101 121
2 117 122
2 120 123
2 106 124
2 119 125
2 111 126
2 118 127
2 137 128
2 114 129
2 120 130
2 126 131
2 112 132
2 116 133
2 130 134
2 107 135
2 121 136
2 127 137
2 129 138
2 134 139
2 147 140
2 140 141
2 106 142
2 138 143
2 135 144
2 136 145
2 138 146
2 142 147
2 151 148
2 137 149
2 139 150
2 158 151
2 148 152
2 144 153
2 152 154
2 143 155
2 154 156
2 133 157
2 149 158
2 146 159
2 155 160
2 157 161
2 160 162
2 162 163
2 166 164
2 157 165
2 147 166
2 163 167
2 165 168
2 161 169
2 158 170
2 168 171
2 169 172
2 172 173
2 171 174
2 173 175
2 178 176
2 168 177
2 170 178
2 176 179
2 178 180
2 175 181
2 180 182
2 181 183
2 177 184
2 179 185
2 185 186
2 180 187
2 186 188
2 182 189
2 191 190
2 192 191
2 189 192
2 188 193
2 193 194
2 187 195
2 195 196
2 198 197
2 196 198

VERTICES 199 398
1 0
1 1
1 2
1 3
1 4
1 5
1 6
1 7
1 8
1 9
1 10
1 11
1 12
1 13
1 14
1 15
1 16
1 17
1 18
1 19
1 20
1 21
1 22
1 23
1 24
1 25
1 26
1 27
1 28
1 29
1 30
1 31
1 32
1 33
1 34
1 35
1 36
1 37
1 38
1 39
1 40
1 41
1 42
1 43
1 44
1 45
1 46
1 47
1 48
1 49
1 50
1 51
1 52
1 53
1 54
1 55
1 56
1 57
1 58
1 59
1 60
1 61
1 62
1 63
1 64
1 65
1 66
1 67
1 68
1 69
1 70
1 71
1 72
1 73
1 74
1 75
1 76
1 77
1 78
1 79
1 80
1 81
1 82
1 83
1 84
1 85
1 86
1 87
1 88
1 89
1 90
1 91
1 92
1 93
1 94
1 95
1 96
1 97
1 98
1 99
1 100
1 101
1 102
1 103
1 104
1 105
1 106
1 107
1 108
1 109
1 110
1 111
1 112
1 113
1 114
1 115
1 116
1 117
1 118
1 119
1 120
1 121
1 122
1 123
1 124
1 125
1 126
1 127
1 128
1 129
1 130
1 131
1 132
1 133
1 134
1 135
1 136
1 137
1 138
1 139
1 140
1 141
1 142
1 143
1 144
1 145
1 146
1 147
1 148
1 149
1 150
1 151
1 152
1 153
1 154
1 155
1 156
1 157
1 158
1 159
1 160
1 161
1 162
1 163
1 164
1 165
1 166
1 167
1 168
1 169
1 170
1 171
1 172
1 173
1 174
1 175
1 176
1 177
1 178
1 179
1 180
1 181
1 182
1 183
1 184
1 185
1 186
1 187
1 188
1 189
1 190
1 191
1 192
1 193
1 194
1 195
1 196
1 197
1 198

POINT_DATA 199
SCALARS scalars float 1
LOOKUP_TABLE default
0.000000
0.000000
0.000000
0.000000
0.000000
0.000000
0.000000
0.000000
0.000000
0.000000
0.000000
0.000000
0.000000
0.000000
0.000000
0.000000
0.000000
0.000000
0.000000
0.000000
0.000000
0.000000
0.000000
0.000000
0.000000
0.000000
0.000000
0.000000
0.000000
0.000000
0.000000
0.000000
0.000000
0.000000
0.000000
0.000000
0.000000
0.000000
0.000000
0.000000
0.000000
0.000000
0.000000
0.000000
0.000000
0.000000
0.000000
0.000000
0.000000
0.000000
0.000000
0.000000
0.000000
0.000000
0.000000
0.000000
0.000000
0.000000
0.000000
0.000000
0.000000
0.000000
0.000000
0.000000
0.000000
0.000000
0.000000
0.000000
0.000000
0.000000
0.000000
0.000000
0.000000
0.000000
0.000000
0.000000
0.000000
0.000000
0.000000
0.000000
0.000000
0.000000
0.000000
0.000000
0.000000
0.000000
0.000000
0.000000
0.000000
0.000000
0.000000
0.000000
0.000000
0.000000
0.000000
0.000000
0.000000
0.000000
0.000000
0.000000
0.000000
0.000000
0.000000
0.000000
0.000000
0.000000
0.000000
0.000000
0.000000
0.000000
0.000000
0.000000
0.000000
0.000000
0.000000
0.000000
0.000000
0.000000
0.000000
0.000000
0.000000
0.000000
0.000000
0.000000
0.000000
0.000000
0.000000
0.000000
0.000000
0.000000
0.000000
0.000000
0.000000
0.000000
0.000000
0.000000
0.000000
0.000000
0.000000
0.000000
0.000000
0.000000
0.000000
0.000000
0.000000
0.000000
0.000000
0.000000
0.000000
0.000000
0.000000
0.000000
0.000000
0.000000
0.000000
0.000000
0.000000
0.000000
0.000000
0.000000
0.000000
0.000000
0.000000
0.000000
0.000000
0.000000
0.000000
0.000000
0.000000
0.000000
0.000000
0.000000
0.000000
0.000000
0.000000
0.000000
0.000000
0.000000
0.000000
0.000000
0.000000
0.000000
0.000000
0.000000
0.000000
0.000000
0.000000
0.000000
0.000000
0.000000
0.000000
0.000000
0.000000
0.000000
0.000000
0.000000
0.000000
0.000000
0.000000
