# vtk DataFile Version 3.0
vtk output
ASCII
DATASET POLYDATA

POINTS 208 float
7748 80678 51246
9306 79992 51766
9768 83463 53638
9900 85153 53586
10045 82077 53014
10164 79068 50960
10164 78579 50414
10309 76507 49582
10692 86394 54340
11220 73062 48256
11352 73854 48958
11787 87146 46618
12051 87054 47164
12051 72296 45058
12170 63188 53300
12183 79992 51558
12223 68547 42068
12289 67914 42640
12342 71768 45032
12342 68336 42354
12408 72679 45526
12408 68745 41756
12434 87001 47710
12540 78777 41860
12619 73959 45370
12711 79675 50882
12777 78236 41080
12843 80678 52416
12909 68983 43394
12909 86961 40196
12936 68244 51220
12936 65208 52754
12949 87159 39598
13015 86592 40612
13068 66567 51844
13107 74514 47060
13107 74646 44876
13134 81708 53014
13173 74989 44382
13200 70026 43784
13213 82315 53638
13292 86235 41054
13305 71478 45084
13437 70620 44668
13662 70620 50804
13728 75266 43940
13767 79662 49816
13860 85879 41106
13873 75411 43940
13886 67188 43654
13886 73141 47346
13926 71214 49764
13952 72956 47606
13952 73959 53066
13992 71412 45266
14005 74751 52572
14031 75834 43680
14058 86790 48048
14058 73735 54600
14058 78276 41470
14124 71781 46228
14203 72943 55120
14256 74052 55614
14256 85998 47242
14282 72296 46904
14322 74157 56212
14388 74355 56758
14414 75266 52260
14467 73418 48152
14493 85219 41236
14520 77497 50804
14533 73590 50154
14546 75240 52026
14652 76335 43550
14691 73220 49712
14718 73299 49010
14718 72270 55198
14850 66501 44668
14850 74316 50674
14916 76890 43368
14929 84823 40118
14942 85232 42484
14995 78764 42614
15087 80124 48568
15114 69696 42328
15127 77325 43108
15140 75966 51350
15219 77787 43420
15312 84902 37362
15338 66871 53560
15351 85536 46670
15391 84546 38922
15404 79173 43810
15470 78144 51714
15523 84678 43758
15576 66343 40534
15576 87014 49426
15576 80823 50362
15589 67808 52052
15589 67729 51714
15602 66963 41132
15615 85338 37934
15655 68349 41678
15668 67254 53430
15734 79213 52832
15774 67821 52416
15906 65960 45136
15906 84216 44798
15932 85206 46410
15932 74685 47944
15972 86064 46696
15998 71293 42224
16011 79239 45682
16104 81800 51116
16170 67676 53352
16170 67716 52936
16183 86103 37492
16328 80163 46878
16394 80467 47164
16447 83978 45682
16500 76164 51376
16513 83622 46592
16566 80163 53248
16632 74646 51480
16698 86341 46670
16724 72375 42926
16737 70395 44668
16764 81787 47216
16777 67716 53170
16830 65419 46046
16896 87384 48334
17028 87318 49114
17067 77154 51740
17094 72666 51298
17094 79701 47736
17094 70897 46280
17292 67861 52754
17305 75583 51064
17490 65749 46800
17490 71623 45422
17569 74395 43420
17622 65313 46904
17912 75319 43992
17912 67914 52338
17952 81708 54184
18018 83595 51142
18097 78276 47216
18163 69999 51792
18216 69590 53248
18216 74421 50648
18282 77035 50596
18453 84480 55692
18453 75530 50544
18480 84638 50388
18519 69392 52546
18546 75636 45188
18546 83028 55172
18546 83173 56082
18638 65168 47372
18783 84717 56186
18823 69326 45526
18849 75900 45344
18889 76058 54652
18968 75121 55172
19008 78289 49738
19021 73299 45370
19113 76058 46332
19417 78672 49114
19496 86367 50960
19602 74408 56368
19641 74725 45604
19694 71253 48438
19800 69801 53326
19958 75438 59488
20024 88387 51428
20037 73986 57382
20037 74751 58370
20235 64059 47294
20275 74580 45942
20367 71570 48126
20394 72534 56628
20526 71306 55822
20565 75636 52130
20658 76296 52728
20697 63597 46410
20790 71847 47996
20803 74382 51376
20816 73669 47034
20882 70224 55146
20895 72138 48100
21159 73194 51038
21159 72745 48126
21595 78764 53508
21714 72045 48750
21872 72019 50856
22083 62647 45500
22440 70448 55666
22770 70514 49998
22849 69933 49010
23390 78210 54574
24037 71425 55510
24486 76137 55198
24908 72336 55458
25014 75015 55562
25357 71478 55614
25568 71082 55276
25779 70290 55276
26070 69933 55432

LINES 207 621
2 0 1
2 4 2
2 2 3
2 1 4
2 0 5
2 5 6
2 6 7
2 3 8
2 10 9
2 7 10
2 12 11
2 22 12
2 18 13
2 31 14
2 25 15
2 19 16
2 42 18
2 17 19
2 13 20
2 16 21
2 57 22
2 26 23
2 36 24
2 5 25
2 59 26
2 15 27
2 17 28
2 39 28
2 33 29
2 44 30
2 34 31
2 29 32
2 41 33
2 30 34
2 50 35
2 38 36
2 27 37
2 45 38
2 43 39
2 37 40
2 47 41
2 54 42
2 54 43
2 51 44
2 48 45
2 25 46
2 56 48
2 28 49
2 52 50
2 71 51
2 68 52
2 55 53
2 60 54
2 67 55
2 73 56
2 63 57
2 53 58
2 82 59
2 64 60
2 58 61
2 58 62
2 90 63
2 50 64
2 62 65
2 65 66
2 72 67
2 75 68
2 47 69
2 81 69
2 25 70
2 78 71
2 86 72
2 79 73
2 71 74
2 74 75
2 61 76
2 49 77
2 70 78
2 85 79
2 69 80
2 94 81
2 92 82
2 46 83
2 111 84
2 87 85
2 70 86
2 92 87
2 91 88
2 103 89
2 108 90
2 80 91
2 112 92
2 70 93
2 107 94
2 100 95
2 57 96
2 46 97
2 105 98
2 98 99
2 102 100
2 91 101
2 84 102
2 114 103
2 93 104
2 115 105
2 77 106
2 119 107
2 121 108
2 68 109
2 90 110
2 125 111
2 117 112
2 97 113
2 128 114
2 114 115
2 101 116
2 118 117
2 134 118
2 121 119
2 123 120
2 127 121
2 104 122
2 86 123
2 110 124
2 140 125
2 139 126
2 118 127
2 136 128
2 106 129
2 131 130
2 96 131
2 120 132
2 123 133
2 83 134
2 139 135
2 143 136
2 123 137
2 141 138
2 165 139
2 142 140
2 129 141
2 155 142
2 154 143
2 122 144
2 113 145
2 134 146
2 133 147
2 154 148
2 152 149
2 137 150
2 157 151
2 150 152
2 145 153
2 147 154
2 161 155
2 144 156
2 156 157
2 141 158
2 151 159
2 139 160
2 166 161
2 163 162
2 169 163
2 150 164
2 170 165
2 146 166
2 164 167
2 153 168
2 175 169
2 166 170
2 179 171
2 154 172
2 176 173
2 168 174
2 180 175
2 175 176
2 158 177
2 170 178
2 185 179
2 181 180
2 188 181
2 183 182
2 192 183
2 177 184
2 189 185
2 182 186
2 178 187
2 172 188
2 191 189
2 186 190
2 187 191
2 199 192
2 191 193
2 190 194
2 184 195
2 188 196
2 194 197
2 197 198
2 201 199
2 196 200
2 203 201
2 200 202
2 202 203
2 202 204
2 204 205
2 205 206
2 206 207

VERTICES 208 416
1 0
1 1
1 2
1 3
1 4
1 5
1 6
1 7
1 8
1 9
1 10
1 11
1 12
1 13
1 14
1 15
1 16
1 17
1 18
1 19
1 20
1 21
1 22
1 23
1 24
1 25
1 26
1 27
1 28
1 29
1 30
1 31
1 32
1 33
1 34
1 35
1 36
1 37
1 38
1 39
1 40
1 41
1 42
1 43
1 44
1 45
1 46
1 47
1 48
1 49
1 50
1 51
1 52
1 53
1 54
1 55
1 56
1 57
1 58
1 59
1 60
1 61
1 62
1 63
1 64
1 65
1 66
1 67
1 68
1 69
1 70
1 71
1 72
1 73
1 74
1 75
1 76
1 77
1 78
1 79
1 80
1 81
1 82
1 83
1 84
1 85
1 86
1 87
1 88
1 89
1 90
1 91
1 92
1 93
1 94
1 95
1 96
1 97
1 98
1 99
1 100
1 101
1 102
1 103
1 104
1 105
1 106
1 107
1 108
1 109
1 110
1 111
1 112
1 113
1 114
1 115
1 116
1 117
1 118
1 119
1 120
1 121
1 122
1 123
1 124
1 125
1 126
1 127
1 128
1 129
1 130
1 131
1 132
1 133
1 134
1 135
1 136
1 137
1 138
1 139
1 140
1 141
1 142
1 143
1 144
1 145
1 146
1 147
1 148
1 149
1 150
1 151
1 152
1 153
1 154
1 155
1 156
1 157
1 158
1 159
1 160
1 161
1 162
1 163
1 164
1 165
1 166
1 167
1 168
1 169
1 170
1 171
1 172
1 173
1 174
1 175
1 176
1 177
1 178
1 179
1 180
1 181
1 182
1 183
1 184
1 185
1 186
1 187
1 188
1 189
1 190
1 191
1 192
1 193
1 194
1 195
1 196
1 197
1 198
1 199
1 200
1 201
1 202
1 203
1 204
1 205
1 206
1 207

POINT_DATA 208
SCALARS scalars float 1
LOOKUP_TABLE default
0.000000
0.000000
0.000000
0.000000
0.000000
0.000000
0.000000
0.000000
0.000000
0.000000
0.000000
0.000000
0.000000
0.000000
0.000000
0.000000
0.000000
0.000000
0.000000
0.000000
0.000000
0.000000
0.000000
0.000000
0.000000
0.000000
0.000000
0.000000
0.000000
0.000000
0.000000
0.000000
0.000000
0.000000
0.000000
0.000000
0.000000
0.000000
0.000000
0.000000
0.000000
0.000000
0.000000
0.000000
0.000000
0.000000
0.000000
0.000000
0.000000
0.000000
0.000000
0.000000
0.000000
0.000000
0.000000
0.000000
0.000000
0.000000
0.000000
0.000000
0.000000
0.000000
0.000000
0.000000
0.000000
0.000000
0.000000
0.000000
0.000000
0.000000
0.000000
0.000000
0.000000
0.000000
0.000000
0.000000
0.000000
0.000000
0.000000
0.000000
0.000000
0.000000
0.000000
0.000000
0.000000
0.000000
0.000000
0.000000
0.000000
0.000000
0.000000
0.000000
0.000000
0.000000
0.000000
0.000000
0.000000
0.000000
0.000000
0.000000
0.000000
0.000000
0.000000
0.000000
0.000000
0.000000
0.000000
0.000000
0.000000
0.000000
0.000000
0.000000
0.000000
0.000000
0.000000
0.000000
0.000000
0.000000
0.000000
0.000000
0.000000
0.000000
0.000000
0.000000
0.000000
0.000000
0.000000
0.000000
0.000000
0.000000
0.000000
0.000000
0.000000
0.000000
0.000000
0.000000
0.000000
0.000000
0.000000
0.000000
0.000000
0.000000
0.000000
0.000000
0.000000
0.000000
0.000000
0.000000
0.000000
0.000000
0.000000
0.000000
0.000000
0.000000
0.000000
0.000000
0.000000
0.000000
0.000000
0.000000
0.000000
0.000000
0.000000
0.000000
0.000000
0.000000
0.000000
0.000000
0.000000
0.000000
0.000000
0.000000
0.000000
0.000000
0.000000
0.000000
0.000000
0.000000
0.000000
0.000000
0.000000
0.000000
0.000000
0.000000
0.000000
0.000000
0.000000
0.000000
0.000000
0.000000
0.000000
0.000000
0.000000
0.000000
0.000000
0.000000
0.000000
0.000000
0.000000
0.000000
0.000000
0.000000
0.000000
0.000000
0.000000
0.000000
0.000000
0.000000
