# vtk DataFile Version 3.0
vtk output
ASCII
DATASET POLYDATA

POINTS 253 float
5900 77774 71292
17160 77220 64740
15272 60984 66586
20658 69075 62296
19998 71808 66508
16962 68112 66170
20407 71544 65676
19509 71240 65624
15655 68732 65884
17635 67267 65858
17067 65010 65026
17437 65208 64636
17991 65142 64714
18519 65736 64714
18216 65828 64480
18968 68706 61256
19377 63782 66638
11048 72837 63934
11563 72507 63518
13899 71412 63336
15840 71425 61334
15668 71478 61672
14322 70791 61490
12474 69630 63336
12909 70725 62582
19364 88968 73502
18915 88836 72930
19866 88136 73242
19496 87318 72800
16368 69181 66378
16315 69498 66638
19021 70250 66092
16038 83899 68588
15325 84849 67314
11972 76758 67626
9306 76098 68588
14163 75266 73086
18876 91027 72748
15378 85021 68068
16209 85707 68406
17582 87014 70954
12421 76771 69264
13794 75873 72800
13860 74949 71656
13530 75108 71760
13002 74553 72436
11708 74065 70746
11484 73814 70304
11655 73788 70512
13662 69867 75296
14546 72837 71864
13860 72468 72436
13160 72441 73372
14137 73656 72826
13530 71425 74464
14718 70092 75608
12936 70158 75140
12672 70461 74776
21806 76098 65962
20301 77233 66586
17952 78751 68276
18480 79134 71838
18123 77880 72488
18150 77906 72774
18783 74778 74516
18678 75213 72930
18981 76335 72384
19272 74725 73450
17305 71055 75582
17173 78711 69238
18242 74751 66274
17424 77088 68224
18229 75570 65390
18348 75306 64428
19602 75807 62894
18744 74844 66456
17767 74791 67912
19364 78183 67600
22572 66092 60632
22202 66475 60710
12157 66422 73788
19272 68138 73632
17292 81246 73138
17556 83292 74022
17041 82579 72072
18150 80942 71266
18612 80784 71240
18057 79332 72254
18889 79305 70330
19562 77629 67158
20011 77352 66846
22017 75543 64766
20671 63162 67314
19338 63716 67184
14546 61815 65494
14124 65089 67184
12606 65577 67496
12012 64310 69394
12698 66726 73840
14718 88770 74958
15153 88149 73632
15642 85311 67938
16724 86420 69524
18150 88004 70434
15338 87476 75192
14678 88849 77766
14533 88123 77220
21146 76375 65312
22717 73695 70122
22968 74329 67808
22308 73986 67600
22387 74725 67236
21582 75240 61308
21516 75306 63726
21555 75306 62504
21938 75042 62998
20895 80982 72254
21318 79622 71708
23060 80097 73528
23628 80625 75556
24644 80625 75530
15325 78289 68380
14361 78936 67288
13741 80823 67600
12975 79728 68510
12936 79490 68978
10890 68970 66898
9372 74712 67756
9609 74712 67782
15285 74844 74282
13926 73392 61828
8593 76111 68718
8342 74857 68458
9662 72336 68458
8923 72468 68796
10269 72032 66612
11233 70131 67990
11167 67531 67418
11774 67993 67028
11919 63531 70564
12764 63822 68666
12408 64508 68614
12698 64297 67860
14256 63703 67860
14124 63558 67392
15008 64442 67002
15787 61116 66196
14137 61182 66352
18110 62568 66222
20064 64323 67158
20499 64944 68510
20196 67584 72384
11484 70263 68952
11814 70884 69498
12210 70976 70564
12236 71029 71604
12804 71517 72150
10467 72006 65884
11101 73154 64766
10203 72613 64766
12540 71781 64272
13635 73154 62816
13820 73801 62166
14546 73194 60918
13556 72428 61932
13266 72692 60216
13490 73867 59280
13992 72930 58994
12645 71478 63076
15338 68772 63128
15576 69366 63596
15747 68191 63960
16104 68851 64220
18176 66066 65182
18097 65102 65026
17160 67914 65364
19509 70092 67132
19800 69696 66872
19206 70857 65702
20262 70290 65182
16170 69234 66378
17028 68706 67236
18889 71306 69524
18255 69920 67938
12210 66660 73164
12223 66726 73892
12975 77180 68276
11814 76560 68978
13266 78051 69186
13952 78078 68406
14850 76929 67834
16434 76758 66040
19311 80744 65494
21120 86816 64766
21318 84902 65260
14850 82605 68666
15483 83424 70824
16104 83648 70642
15589 82896 67444
16262 83912 68718
16658 85338 68718
16698 85892 69264
19773 88334 72696
19338 91700 73190
19008 90591 72696
18638 90552 70122
18902 91185 69888
18902 91608 69394
18414 91766 68952
18031 94076 68146
16500 88136 72462
15840 88321 73112
15681 88519 73554
15576 87714 74412
14652 88057 74542
14599 88902 75998
14454 88070 76596
13160 72903 58916
17490 78276 64142
18084 80863 64610
16975 77286 64142
18638 81615 65780
14810 74672 74126
16104 72296 76492
16526 72639 76232
15985 73075 76388
16368 74184 75686
18176 78408 70148
18744 77840 72306
15444 70527 77012
15193 68904 76466
14863 69128 76986
19285 76520 73398
18387 76573 73268
18440 81391 71604
20262 80797 71552
21186 81602 71370
21384 81180 71136
17292 82935 72488
18387 84744 72956
17094 84691 73918
17701 85747 74386
18955 85496 74360
18189 85866 74516
17648 84150 74750
18440 84493 74880
19232 84493 74568
14480 83173 68978
14084 82236 68354
18361 77193 72774
13767 72270 72956
20394 68666 62504
8395 75913 68588

VERTICES 253 506
1 0
1 1
1 2
1 3
1 4
1 5
1 6
1 7
1 8
1 9
1 10
1 11
1 12
1 13
1 14
1 15
1 16
1 17
1 18
1 19
1 20
1 21
1 22
1 23
1 24
1 25
1 26
1 27
1 28
1 29
1 30
1 31
1 32
1 33
1 34
1 35
1 36
1 37
1 38
1 39
1 40
1 41
1 42
1 43
1 44
1 45
1 46
1 47
1 48
1 49
1 50
1 51
1 52
1 53
1 54
1 55
1 56
1 57
1 58
1 59
1 60
1 61
1 62
1 63
1 64
1 65
1 66
1 67
1 68
1 69
1 70
1 71
1 72
1 73
1 74
1 75
1 76
1 77
1 78
1 79
1 80
1 81
1 82
1 83
1 84
1 85
1 86
1 87
1 88
1 89
1 90
1 91
1 92
1 93
1 94
1 95
1 96
1 97
1 98
1 99
1 100
1 101
1 102
1 103
1 104
1 105
1 106
1 107
1 108
1 109
1 110
1 111
1 112
1 113
1 114
1 115
1 116
1 117
1 118
1 119
1 120
1 121
1 122
1 123
1 124
1 125
1 126
1 127
1 128
1 129
1 130
1 131
1 132
1 133
1 134
1 135
1 136
1 137
1 138
1 139
1 140
1 141
1 142
1 143
1 144
1 145
1 146
1 147
1 148
1 149
1 150
1 151
1 152
1 153
1 154
1 155
1 156
1 157
1 158
1 159
1 160
1 161
1 162
1 163
1 164
1 165
1 166
1 167
1 168
1 169
1 170
1 171
1 172
1 173
1 174
1 175
1 176
1 177
1 178
1 179
1 180
1 181
1 182
1 183
1 184
1 185
1 186
1 187
1 188
1 189
1 190
1 191
1 192
1 193
1 194
1 195
1 196
1 197
1 198
1 199
1 200
1 201
1 202
1 203
1 204
1 205
1 206
1 207
1 208
1 209
1 210
1 211
1 212
1 213
1 214
1 215
1 216
1 217
1 218
1 219
1 220
1 221
1 222
1 223
1 224
1 225
1 226
1 227
1 228
1 229
1 230
1 231
1 232
1 233
1 234
1 235
1 236
1 237
1 238
1 239
1 240
1 241
1 242
1 243
1 244
1 245
1 246
1 247
1 248
1 249
1 250
1 251
1 252

POINT_DATA 253
SCALARS scalars float 1
LOOKUP_TABLE default
0.500000
0.500000
0.500000
0.500000
0.500000
0.500000
0.500000
0.500000
0.500000
0.500000
0.500000
0.500000
0.500000
0.500000
0.500000
0.500000
0.500000
0.500000
0.500000
0.500000
0.500000
0.500000
0.500000
0.500000
0.500000
0.500000
0.500000
0.500000
0.500000
0.500000
0.500000
0.500000
0.500000
0.500000
0.500000
0.500000
0.500000
0.500000
0.500000
0.500000
0.500000
0.500000
0.500000
0.500000
0.500000
0.500000
0.500000
0.500000
0.500000
0.500000
0.500000
0.500000
0.500000
0.500000
0.500000
0.500000
0.500000
0.500000
0.500000
0.500000
0.500000
0.500000
0.500000
0.500000
0.500000
0.500000
0.500000
0.500000
0.500000
0.500000
0.500000
0.500000
0.500000
0.500000
0.500000
0.500000
0.500000
0.500000
0.500000
0.500000
0.500000
0.500000
0.500000
0.500000
0.500000
0.500000
0.500000
0.500000
0.500000
0.500000
0.500000
0.500000
0.500000
0.500000
0.500000
0.500000
0.500000
0.500000
0.500000
0.500000
0.500000
0.500000
0.500000
0.500000
0.500000
0.500000
0.500000
0.500000
0.500000
0.500000
0.500000
0.500000
0.500000
0.500000
0.500000
0.500000
0.500000
0.500000
0.500000
0.500000
0.500000
0.500000
0.500000
0.500000
0.500000
0.500000
0.500000
0.500000
0.500000
0.500000
0.500000
0.500000
0.500000
0.500000
0.500000
0.500000
0.500000
0.500000
0.500000
0.500000
0.500000
0.500000
0.500000
0.500000
0.500000
0.500000
0.500000
0.500000
0.500000
0.500000
0.500000
0.500000
0.500000
0.500000
0.500000
0.500000
0.500000
0.500000
0.500000
0.500000
0.500000
0.500000
0.500000
0.500000
0.500000
0.500000
0.500000
0.500000
0.500000
0.500000
0.500000
0.500000
0.500000
0.500000
0.500000
0.500000
0.500000
0.500000
0.500000
0.500000
0.500000
0.500000
0.500000
0.500000
0.500000
0.500000
0.500000
0.500000
0.500000
0.500000
0.500000
0.500000
0.500000
0.500000
0.500000
0.500000
0.500000
0.500000
0.500000
0.500000
0.500000
0.500000
0.500000
0.500000
0.500000
0.500000
0.500000
0.500000
0.500000
0.500000
0.500000
0.500000
0.500000
0.500000
0.500000
0.500000
0.500000
0.500000
0.500000
0.500000
0.500000
0.500000
0.500000
0.500000
0.500000
0.500000
0.500000
0.500000
0.500000
0.500000
0.500000
0.500000
0.500000
0.500000
0.500000
0.500000
0.500000
0.500000
0.500000
0.500000
0.500000
0.500000
0.500000
0.500000
0.500000
0.500000
0.500000
0.500000
0.500000
0.500000
0.500000
0.500000
0.500000
