# vtk DataFile Version 3.0
vtk output
ASCII
DATASET POLYDATA

POINTS 230 float
6072 57420 76856
19668 56364 68120
23179 64165 66508
22506 65142 65780
23509 63399 65208
21687 62766 68796
21410 61934 83902
22836 65287 65182
22796 64706 65026
23443 64152 65546
18638 58568 76960
15549 60918 76596
16777 60786 76154
17886 59545 76726
19826 54925 74828
18546 62462 73788
17450 62040 74750
16236 61644 79534
21093 58872 65884
16909 52074 82914
22928 50424 79794
19074 50661 73060
19892 51348 74282
19166 53869 73684
18942 61776 73372
17160 61934 74906
16104 61551 75556
14586 61947 77090
15417 62119 77090
16473 61208 77194
18216 59043 76934
18757 57776 76258
17833 58383 76700
18783 56443 79300
17358 57129 78832
15510 59096 80548
16104 59109 80626
15576 60258 80704
16196 59466 79404
16077 59281 79378
15787 58766 79534
17397 57750 79430
15193 55440 81198
15206 55532 80366
15708 54846 81120
24816 44748 73606
24459 44906 72696
22308 47784 70330
18321 50252 72644
19087 51823 73190
19417 52047 74776
16011 51031 70512
15774 49975 71526
15444 50199 71032
16434 49962 71058
18414 55149 69186
18757 54938 68718
17793 55743 70876
14533 56931 71058
13754 57565 70694
12474 58410 70616
11880 58713 71370
10428 58647 72748
10797 58476 73190
10203 58436 73346
20064 48272 84526
19694 47361 84032
20328 48048 83798
20196 48378 83668
19272 51084 82940
18968 51044 82498
22215 52536 78858
21938 52338 75426
22044 48325 79040
22070 48642 79768
20829 54080 80366
19483 54938 80470
17331 51480 82108
16843 54001 81406
17952 57261 80808
17912 58383 79326
17569 57750 79924
19034 57261 81328
18876 56192 82186
19668 57525 83746
20763 58106 83798
19839 58819 84630
20592 61353 85280
19958 61723 85852
15457 61815 88322
14823 62792 87412
14229 62317 88192
15338 61644 87672
14520 61974 87698
15351 62779 88816
14929 62977 87958
16038 63003 87438
16170 62000 87542
19153 62475 86606
19351 62449 87022
20024 62832 86606
21080 62726 85436
20895 63703 86294
20790 64653 87230
21885 65419 88296
22400 65181 88764
22836 65828 88010
22730 65696 89206
22572 66726 88244
23166 65934 88322
21291 61644 73528
22968 64640 75062
22941 59492 79378
23073 59136 78832
23430 59215 77506
17688 57129 70876
17424 56179 70408
17424 55862 70980
15998 58146 71032
15470 57327 70720
15444 57024 70902
15734 56562 71474
13200 58476 71110
13860 56601 71110
15774 56562 71474
15048 56535 71630
16104 58159 71422
10956 58278 73424
11154 58093 72956
15378 63954 91546
19087 52351 67704
20024 56958 70694
21780 48840 69290
21846 44880 76778
20724 45685 74022
20156 46147 73008
22572 47190 71916
20592 47652 73684
18810 52404 73918
18308 49143 73554
20011 51981 73996
18810 55149 73736
18915 54186 73762
17305 54846 81120
15589 56179 80756
22651 51519 75556
21872 51876 77298
21463 51625 79456
18453 57182 79066
18387 58027 77610
16724 61155 76050
18044 60073 77506
17358 58819 77766
15840 62343 76804
10098 58449 74490
8712 57420 75998
21252 61578 69680
22242 63954 68770
22770 55717 70356
26822 58779 72540
26809 59624 71786
27099 61314 71708
26017 61353 71812
23628 57816 73398
23839 57882 73866
23034 58476 73164
23430 57921 77662
23179 59426 76986
26334 58212 74022
25489 58357 73632
21951 56430 71760
18282 56232 69836
19074 55242 69420
20130 56760 67730
21027 58014 65078
20658 59109 65182
21186 57776 65754
20460 56865 66742
18163 56865 70226
16302 57684 72150
17094 58885 72462
17899 58146 72852
18572 57908 74048
19668 55783 73944
19074 57499 75998
15615 62238 76414
19668 46530 72774
23007 46424 72020
22519 50252 69888
21621 49513 69524
21780 51044 69290
21225 52074 68588
22387 49209 70460
22004 45830 77792
20618 44246 77376
21450 43916 78312
23430 42675 79352
23232 42926 80314
21938 45672 77376
22796 44312 77948
21054 38187 80288
20354 45738 75686
15866 56496 70824
20948 52892 66534
15655 61380 79950
15576 59994 79430
16764 64627 74802
16117 63716 75660
16038 63716 76310
18889 51638 82836
20486 53288 81250
21384 51453 80288
20288 52008 80340
19813 52034 81276
17899 51823 82810
17622 54423 81718
15906 55651 81042
18638 49869 84526
16579 58740 72072
17556 58713 73294
19536 52272 81666
21925 36247 78832
23232 38808 79794
21925 39956 79794
23469 39600 79586
23720 58476 73346
21384 62238 83746
21159 48853 68250
20631 49698 68172
21397 49170 67522

VERTICES 230 460
1 0
1 1
1 2
1 3
1 4
1 5
1 6
1 7
1 8
1 9
1 10
1 11
1 12
1 13
1 14
1 15
1 16
1 17
1 18
1 19
1 20
1 21
1 22
1 23
1 24
1 25
1 26
1 27
1 28
1 29
1 30
1 31
1 32
1 33
1 34
1 35
1 36
1 37
1 38
1 39
1 40
1 41
1 42
1 43
1 44
1 45
1 46
1 47
1 48
1 49
1 50
1 51
1 52
1 53
1 54
1 55
1 56
1 57
1 58
1 59
1 60
1 61
1 62
1 63
1 64
1 65
1 66
1 67
1 68
1 69
1 70
1 71
1 72
1 73
1 74
1 75
1 76
1 77
1 78
1 79
1 80
1 81
1 82
1 83
1 84
1 85
1 86
1 87
1 88
1 89
1 90
1 91
1 92
1 93
1 94
1 95
1 96
1 97
1 98
1 99
1 100
1 101
1 102
1 103
1 104
1 105
1 106
1 107
1 108
1 109
1 110
1 111
1 112
1 113
1 114
1 115
1 116
1 117
1 118
1 119
1 120
1 121
1 122
1 123
1 124
1 125
1 126
1 127
1 128
1 129
1 130
1 131
1 132
1 133
1 134
1 135
1 136
1 137
1 138
1 139
1 140
1 141
1 142
1 143
1 144
1 145
1 146
1 147
1 148
1 149
1 150
1 151
1 152
1 153
1 154
1 155
1 156
1 157
1 158
1 159
1 160
1 161
1 162
1 163
1 164
1 165
1 166
1 167
1 168
1 169
1 170
1 171
1 172
1 173
1 174
1 175
1 176
1 177
1 178
1 179
1 180
1 181
1 182
1 183
1 184
1 185
1 186
1 187
1 188
1 189
1 190
1 191
1 192
1 193
1 194
1 195
1 196
1 197
1 198
1 199
1 200
1 201
1 202
1 203
1 204
1 205
1 206
1 207
1 208
1 209
1 210
1 211
1 212
1 213
1 214
1 215
1 216
1 217
1 218
1 219
1 220
1 221
1 222
1 223
1 224
1 225
1 226
1 227
1 228
1 229

POINT_DATA 230
SCALARS scalars float 1
LOOKUP_TABLE default
0.500000
0.500000
0.500000
0.500000
0.500000
0.500000
0.500000
0.500000
0.500000
0.500000
0.500000
0.500000
0.500000
0.500000
0.500000
0.500000
0.500000
0.500000
0.500000
0.500000
0.500000
0.500000
0.500000
0.500000
0.500000
0.500000
0.500000
0.500000
0.500000
0.500000
0.500000
0.500000
0.500000
0.500000
0.500000
0.500000
0.500000
0.500000
0.500000
0.500000
0.500000
0.500000
0.500000
0.500000
0.500000
0.500000
0.500000
0.500000
0.500000
0.500000
0.500000
0.500000
0.500000
0.500000
0.500000
0.500000
0.500000
0.500000
0.500000
0.500000
0.500000
0.500000
0.500000
0.500000
0.500000
0.500000
0.500000
0.500000
0.500000
0.500000
0.500000
0.500000
0.500000
0.500000
0.500000
0.500000
0.500000
0.500000
0.500000
0.500000
0.500000
0.500000
0.500000
0.500000
0.500000
0.500000
0.500000
0.500000
0.500000
0.500000
0.500000
0.500000
0.500000
0.500000
0.500000
0.500000
0.500000
0.500000
0.500000
0.500000
0.500000
0.500000
0.500000
0.500000
0.500000
0.500000
0.500000
0.500000
0.500000
0.500000
0.500000
0.500000
0.500000
0.500000
0.500000
0.500000
0.500000
0.500000
0.500000
0.500000
0.500000
0.500000
0.500000
0.500000
0.500000
0.500000
0.500000
0.500000
0.500000
0.500000
0.500000
0.500000
0.500000
0.500000
0.500000
0.500000
0.500000
0.500000
0.500000
0.500000
0.500000
0.500000
0.500000
0.500000
0.500000
0.500000
0.500000
0.500000
0.500000
0.500000
0.500000
0.500000
0.500000
0.500000
0.500000
0.500000
0.500000
0.500000
0.500000
0.500000
0.500000
0.500000
0.500000
0.500000
0.500000
0.500000
0.500000
0.500000
0.500000
0.500000
0.500000
0.500000
0.500000
0.500000
0.500000
0.500000
0.500000
0.500000
0.500000
0.500000
0.500000
0.500000
0.500000
0.500000
0.500000
0.500000
0.500000
0.500000
0.500000
0.500000
0.500000
0.500000
0.500000
0.500000
0.500000
0.500000
0.500000
0.500000
0.500000
0.500000
0.500000
0.500000
0.500000
0.500000
0.500000
0.500000
0.500000
0.500000
0.500000
0.500000
0.500000
0.500000
0.500000
0.500000
0.500000
0.500000
0.500000
0.500000
0.500000
0.500000
0.500000
0.500000
0.500000
0.500000
0.500000
0.500000
0.500000
0.500000
0.500000
0.500000
