# vtk DataFile Version 3.0
vtk output
ASCII
DATASET POLYDATA

POINTS 159 float
3128 59426 39676
3313 59360 39676
4501 58476 39702
5847 57486 39650
7141 56337 39598
8276 55202 39858
9174 54410 40612
10098 54014 41600
10824 53684 42874
11814 53341 43992
12619 53196 44746
13464 53367 45526
14137 53803 45760
15246 54344 46332
16856 54146 46566
18546 54146 46176
19100 53724 47450
19443 54357 48308
20737 52668 45214
20763 54582 49114
21212 52206 47424
21384 51942 47840
21463 49843 47970
21516 50516 47918
21529 53724 45266
21608 51348 47762
21714 51084 44876
21714 48919 48074
21872 43507 42328
21912 43916 41028
21925 51849 48230
22017 44048 42146
22044 43309 41652
22268 45606 41756
22308 44695 42874
22334 54859 44486
22374 50912 42822
22413 50952 42354
22506 48180 48204
22532 55730 49322
22572 50952 41522
22585 42438 41262
22598 61776 50544
22598 50912 43212
22598 50556 40768
22704 41712 39546
22704 50318 43888
22704 62990 49140
22783 42240 40742
22968 41487 38012
22968 50529 39936
22981 50991 39572
23073 49566 43342
23073 47388 48490
23113 47295 43446
23179 55440 43888
23192 50252 39910
23205 55770 49660
23324 51678 38922
23364 51704 48724
23364 50252 39520
23403 52206 38350
23496 55321 43706
23496 45566 48828
23509 51744 49218
23562 55532 49218
23575 50358 39104
23588 51572 43212
23628 56232 49842
23694 59294 54496
23694 50067 42952
23733 53618 37856
23799 51018 50440
23826 57380 48256
23839 45896 43238
23852 54001 37804
23892 46147 43680
23892 54357 50180
23892 59954 54314
23905 55453 42484
23905 60522 52104
23918 50424 38844
23958 60139 51168
23958 60614 52806
24050 55479 41470
24090 58476 50466
24103 60588 53430
24129 51453 49894
24129 50912 38428
24156 57129 49998
24156 58779 50986
24182 53460 43732
24235 52021 43290
24248 51216 38090
24261 45302 42328
24288 57354 47632
24393 46728 35594
24393 45315 42874
24459 55836 40612
24512 50529 50804
24525 50754 41964
24552 43111 46150
24578 43956 45110
24631 45091 44252
24631 55506 48984
24684 51823 37674
24723 58225 45864
24829 45685 41600
24855 50899 48022
24882 50041 50934
24882 57618 51558
24921 46926 37388
24948 45157 41002
24961 57644 46878
24961 46873 36244
24961 53328 51194
24987 56232 39494
25080 46134 40690
25080 52443 52000
25080 56905 51454
25119 40194 43784
25159 55110 43940
25159 57882 38792
25172 57512 45266
25212 44286 40118
25278 43494 43056
25278 48246 51012
25304 51717 41028
25344 42306 46956
25344 41804 47190
25357 56034 44590
25383 46279 45916
25410 45685 40274
25449 43441 40404
25476 48813 50674
25542 46833 38324
25542 59228 37310
25555 46741 51324
25608 41223 43446
25634 42847 43030
25700 57816 49920
25740 45632 45396
25779 58713 37908
25806 46635 39624
25806 42306 51688
25832 41184 47632
25872 42768 40560
25951 50265 47216
25977 53460 39702
26004 46596 47034
26096 41738 40742
26109 53526 40664
26268 43560 51480
26466 47190 47840
26571 45540 51194
26598 59413 44720
26703 59043 45136
26743 44048 51324
26796 44761 50986

LINES 156 468
2 1 0
2 2 1
2 3 2
2 4 3
2 5 4
2 6 5
2 7 6
2 8 7
2 9 8
2 10 9
2 11 10
2 12 11
2 13 12
2 14 13
2 15 14
2 16 17
2 17 19
2 18 20
2 20 21
2 23 22
2 25 23
2 18 24
2 21 25
2 18 26
2 22 27
2 34 28
2 32 29
2 21 30
2 28 31
2 31 32
2 31 33
2 74 34
2 24 35
2 43 36
2 36 37
2 27 38
2 19 39
2 37 40
2 32 41
2 82 42
2 46 43
2 40 44
2 48 45
2 26 46
2 42 47
2 41 48
2 45 49
2 44 50
2 50 51
2 46 52
2 38 53
2 52 54
2 35 55
2 50 56
2 39 57
2 51 58
2 30 59
2 56 60
2 58 61
2 55 62
2 53 63
2 59 64
2 39 65
2 60 66
2 46 67
2 57 68
2 78 69
2 52 70
2 61 71
2 87 72
2 95 73
2 76 74
2 71 75
2 54 76
2 39 77
2 86 78
2 62 79
2 82 80
2 66 81
2 90 82
2 80 83
2 79 84
2 89 85
2 83 86
2 64 87
2 81 88
2 68 89
2 85 90
2 92 91
2 67 92
2 88 93
2 97 94
2 113 95
2 114 96
2 74 97
2 84 98
2 72 99
2 70 100
2 102 101
2 103 102
2 76 103
2 65 104
2 93 105
2 123 106
2 94 107
2 59 108
2 99 109
2 90 110
2 135 111
2 107 112
2 106 113
2 111 114
2 77 115
2 98 116
2 107 117
2 115 118
2 110 119
2 138 120
2 62 121
2 116 122
2 130 123
2 132 124
2 97 125
2 134 126
2 100 127
2 101 128
2 128 129
2 121 130
2 141 131
2 112 132
2 124 133
2 109 134
2 143 135
2 142 136
2 126 137
2 139 138
2 125 139
2 89 140
2 103 141
2 122 142
2 132 143
2 152 144
2 129 145
2 133 146
2 108 147
2 151 148
2 131 149
2 146 150
2 127 151
2 157 152
2 149 153
2 137 154
2 130 155
2 155 156
2 158 157
2 154 158

VERTICES 159 318
1 0
1 1
1 2
1 3
1 4
1 5
1 6
1 7
1 8
1 9
1 10
1 11
1 12
1 13
1 14
1 15
1 16
1 17
1 18
1 19
1 20
1 21
1 22
1 23
1 24
1 25
1 26
1 27
1 28
1 29
1 30
1 31
1 32
1 33
1 34
1 35
1 36
1 37
1 38
1 39
1 40
1 41
1 42
1 43
1 44
1 45
1 46
1 47
1 48
1 49
1 50
1 51
1 52
1 53
1 54
1 55
1 56
1 57
1 58
1 59
1 60
1 61
1 62
1 63
1 64
1 65
1 66
1 67
1 68
1 69
1 70
1 71
1 72
1 73
1 74
1 75
1 76
1 77
1 78
1 79
1 80
1 81
1 82
1 83
1 84
1 85
1 86
1 87
1 88
1 89
1 90
1 91
1 92
1 93
1 94
1 95
1 96
1 97
1 98
1 99
1 100
1 101
1 102
1 103
1 104
1 105
1 106
1 107
1 108
1 109
1 110
1 111
1 112
1 113
1 114
1 115
1 116
1 117
1 118
1 119
1 120
1 121
1 122
1 123
1 124
1 125
1 126
1 127
1 128
1 129
1 130
1 131
1 132
1 133
1 134
1 135
1 136
1 137
1 138
1 139
1 140
1 141
1 142
1 143
1 144
1 145
1 146
1 147
1 148
1 149
1 150
1 151
1 152
1 153
1 154
1 155
1 156
1 157
1 158

POINT_DATA 159
SCALARS scalars float 1
LOOKUP_TABLE default
0.000000
0.000000
0.000000
0.000000
0.000000
0.000000
0.000000
0.000000
0.000000
0.000000
0.000000
0.000000
0.000000
0.000000
0.000000
0.000000
0.000000
0.000000
0.000000
0.000000
0.000000
0.000000
0.000000
0.000000
0.000000
0.000000
0.000000
0.000000
0.000000
0.000000
0.000000
0.000000
0.000000
0.000000
0.000000
0.000000
0.000000
0.000000
0.000000
0.000000
0.000000
0.000000
0.000000
0.000000
0.000000
0.000000
0.000000
0.000000
0.000000
0.000000
0.000000
0.000000
0.000000
0.000000
0.000000
0.000000
0.000000
0.000000
0.000000
0.000000
0.000000
0.000000
0.000000
0.000000
0.000000
0.000000
0.000000
0.000000
0.000000
0.000000
0.000000
0.000000
0.000000
0.000000
0.000000
0.000000
0.000000
0.000000
0.000000
0.000000
0.000000
0.000000
0.000000
0.000000
0.000000
0.000000
0.000000
0.000000
0.000000
0.000000
0.000000
0.000000
0.000000
0.000000
0.000000
0.000000
0.000000
0.000000
0.000000
0.000000
0.000000
0.000000
0.000000
0.000000
0.000000
0.000000
0.000000
0.000000
0.000000
0.000000
0.000000
0.000000
0.000000
0.000000
0.000000
0.000000
0.000000
0.000000
0.000000
0.000000
0.000000
0.000000
0.000000
0.000000
0.000000
0.000000
0.000000
0.000000
0.000000
0.000000
0.000000
0.000000
0.000000
0.000000
0.000000
0.000000
0.000000
0.000000
0.000000
0.000000
0.000000
0.000000
0.000000
0.000000
0.000000
0.000000
0.000000
0.000000
0.000000
0.000000
0.000000
0.000000
0.000000
0.000000
0.000000
0.000000
0.000000
0.000000
0.000000
