# vtk DataFile Version 3.0
vtk output
ASCII
DATASET POLYDATA

POINTS 211 float
8091 57486 75660
9042 57750 74698
10494 58146 72774
11220 59413 74724
11906 58608 72072
12144 58542 71812
12540 60099 75530
13569 57301 71032
13926 61208 76180
14163 65934 91338
14269 64350 91780
14995 63109 92118
15008 61683 76648
15206 62475 88322
15285 55704 80626
15576 61248 80080
15589 59175 80002
15642 63096 91130
15734 62634 87568
15813 56865 71136
15853 62317 76726
15866 63307 76206
15985 62792 76622
16064 50186 71136
16170 51189 71162
16368 63914 75166
16394 54819 81276
16447 61327 76908
16500 49764 71890
16566 58146 71916
16592 64257 74906
16698 58647 79638
16869 61670 75816
17160 56654 70824
17305 60720 76648
17556 62937 90506
17569 61908 75192
17688 58317 73190
17820 58436 78416
17833 57486 79248
17899 52404 81328
17925 59796 77246
18018 59070 77558
18123 56628 79846
18150 58159 77272
18150 56139 70148
18150 55638 80574
18150 62238 74594
18242 49698 72930
18242 62924 87074
18255 56628 70590
18255 62264 73918
18282 53935 80444
18546 49539 84708
18546 56826 81276
18638 57710 76700
18678 57024 74282
18704 55347 69498
18717 63624 89596
18757 52496 67834
18757 53895 81146
18810 53922 68614
18810 54780 68874
18810 61406 73034
18823 48774 72670
18889 52272 67470
18902 51057 73970
18968 56984 82030
18981 55202 68640
19008 57697 83122
19074 50820 83122
19100 56892 76180
19100 56694 75504
19206 55506 74308
19298 50714 83538
19364 54476 74256
19417 48800 71994
19470 55664 68172
19602 49711 83252
19668 48840 71630
19694 58357 70330
19747 63690 89024
19826 49302 83746
19866 48985 83928
19958 48180 84032
19971 56760 67418
20011 47493 84240
20024 61908 85852
20037 48879 71006
20090 56667 71110
20143 63426 86944
20235 52338 66508
20288 58753 83824
20486 59373 84708
20499 46622 73658
20526 53275 67158
20552 59756 83876
20565 63861 83564
20565 49236 69888
20592 63267 87828
20618 57446 66586
20618 51968 68042
20684 45698 75270
20724 62726 71604
20737 63162 83590
20803 49328 68926
20922 59664 70174
20935 64350 87542
20948 58225 65572
20948 62541 83720
20948 51361 68614
20961 61406 85462
21014 60654 84240
21054 49236 67574
21080 49341 68224
21120 62436 86320
21120 61208 84110
21133 62264 73788
21146 62726 74932
21186 61908 83850
21225 59413 65260
21265 59043 64610
21291 60693 69602
21384 61934 72124
21410 66475 68510
21450 52377 79612
21463 50820 68926
21595 38055 78858
21595 61221 72592
21608 66211 68354
21648 46675 72644
21780 57129 71318
21793 36590 78286
21978 65234 87984
22017 38623 79326
22044 44576 77818
22044 51163 79456
22057 63162 68848
22123 51902 78546
22149 64455 67626
22176 49975 69342
22255 49117 69576
22321 63980 67834
22334 64482 67340
22347 63558 68744
22374 64746 68172
22387 39045 80626
22440 65155 68458
22440 60746 71734
22453 39085 80054
22479 52311 76596
22506 60126 71422
22545 51150 77194
22545 48510 69836
22638 50754 77792
22638 47982 70330
22651 46992 71370
22651 47612 70668
22664 50635 79560
22717 65538 88478
22770 56298 69810
22770 65115 75426
22770 65089 76778
22809 48681 79248
22836 64482 66560
22836 50186 79534
22862 58964 79170
22902 64812 65988
22928 43296 79768
22928 48074 79326
22941 58740 80600
22981 49434 79352
22981 46728 72150
22981 65142 74178
22994 55928 69160
23047 58872 72124
23060 58674 76986
23100 64785 65312
23166 58423 77974
23232 58317 72826
23298 61380 71318
23311 63835 71734
23324 65445 89492
23390 64574 72722
23430 59532 80080
23496 59043 76310
23588 40722 80106
23707 62647 69472
23733 62370 70174
23773 59624 80808
23826 63637 65208
23865 47031 72722
23892 58568 74698
23931 47586 72280
23971 62990 65130
24116 61908 70772
24248 65287 90324
24327 65551 91286
24354 46305 72566
24459 44787 73060
24552 43850 73060
24618 41949 80236
24710 41223 80574
24723 57367 75764
25344 61908 70876
25938 57789 73970
26136 58146 73788
26360 60944 71500
26439 59611 71942
26598 59004 72488
26611 60060 71864

LINES 211 633
2 0 1
2 1 2
2 1 3
2 2 4
2 4 5
2 3 6
2 5 7
2 6 8
2 10 9
2 11 10
2 17 11
2 8 12
2 18 13
2 26 14
2 16 15
2 31 16
2 35 17
2 49 18
2 7 19
2 12 20
2 22 21
2 20 22
2 28 23
2 23 24
2 21 25
2 40 26
2 12 27
2 48 28
2 19 29
2 25 30
2 38 31
2 34 32
2 19 33
2 27 34
2 41 34
2 58 35
2 32 36
2 29 37
2 44 38
2 38 39
2 60 40
2 42 41
2 38 42
2 39 43
2 55 44
2 50 45
2 43 46
2 36 47
2 66 48
2 90 49
2 33 50
2 47 51
2 46 52
2 74 53
2 43 54
2 71 55
2 37 56
2 45 57
2 81 58
2 61 59
2 52 60
2 62 61
2 57 62
2 51 63
2 48 64
2 59 65
2 75 66
2 54 67
2 62 68
2 67 69
2 40 70
2 72 71
2 56 72
2 56 73
2 70 74
2 73 75
2 64 76
2 68 77
2 74 78
2 76 79
2 50 80
2 90 81
2 78 82
2 82 83
2 83 84
2 77 85
2 84 86
2 111 87
2 79 88
2 50 89
2 115 90
2 65 91
2 69 92
2 92 93
2 64 94
2 101 95
2 92 96
2 104 97
2 88 98
2 90 99
2 85 100
2 110 101
2 94 102
2 123 103
2 109 104
2 98 105
2 80 106
2 90 107
2 100 108
2 119 109
2 126 110
2 93 111
2 96 112
2 114 113
2 105 114
2 111 115
2 112 116
2 128 117
2 117 118
2 116 119
2 108 120
2 120 121
2 106 122
2 128 123
2 129 124
2 60 125
2 140 126
2 134 127
2 148 128
2 147 129
2 94 130
2 89 131
2 127 132
2 107 133
2 149 134
2 102 135
2 138 136
2 122 137
2 125 138
2 142 139
2 141 140
2 153 141
2 144 142
2 139 143
2 137 144
2 142 145
2 186 146
2 145 147
2 151 148
2 146 149
2 152 150
2 131 151
2 138 152
2 155 153
2 152 154
2 157 155
2 172 156
2 156 157
2 136 158
2 133 159
2 131 160
2 173 161
2 161 162
2 171 163
2 143 164
2 158 165
2 178 166
2 164 167
2 135 168
2 163 169
2 184 170
2 165 171
2 130 172
2 183 173
2 160 174
2 151 175
2 185 176
2 167 177
2 176 178
2 175 179
2 148 180
2 180 181
2 159 182
2 181 183
2 166 184
2 192 185
2 168 186
2 188 187
2 195 188
2 184 189
2 177 190
2 172 191
2 179 192
2 191 193
2 190 194
2 180 195
2 182 196
2 196 197
2 172 198
2 198 199
2 199 200
2 202 201
2 186 202
2 205 203
2 195 204
2 206 205
2 209 206
2 204 207
2 210 208
2 208 209
2 207 210

VERTICES 211 422
1 0
1 1
1 2
1 3
1 4
1 5
1 6
1 7
1 8
1 9
1 10
1 11
1 12
1 13
1 14
1 15
1 16
1 17
1 18
1 19
1 20
1 21
1 22
1 23
1 24
1 25
1 26
1 27
1 28
1 29
1 30
1 31
1 32
1 33
1 34
1 35
1 36
1 37
1 38
1 39
1 40
1 41
1 42
1 43
1 44
1 45
1 46
1 47
1 48
1 49
1 50
1 51
1 52
1 53
1 54
1 55
1 56
1 57
1 58
1 59
1 60
1 61
1 62
1 63
1 64
1 65
1 66
1 67
1 68
1 69
1 70
1 71
1 72
1 73
1 74
1 75
1 76
1 77
1 78
1 79
1 80
1 81
1 82
1 83
1 84
1 85
1 86
1 87
1 88
1 89
1 90
1 91
1 92
1 93
1 94
1 95
1 96
1 97
1 98
1 99
1 100
1 101
1 102
1 103
1 104
1 105
1 106
1 107
1 108
1 109
1 110
1 111
1 112
1 113
1 114
1 115
1 116
1 117
1 118
1 119
1 120
1 121
1 122
1 123
1 124
1 125
1 126
1 127
1 128
1 129
1 130
1 131
1 132
1 133
1 134
1 135
1 136
1 137
1 138
1 139
1 140
1 141
1 142
1 143
1 144
1 145
1 146
1 147
1 148
1 149
1 150
1 151
1 152
1 153
1 154
1 155
1 156
1 157
1 158
1 159
1 160
1 161
1 162
1 163
1 164
1 165
1 166
1 167
1 168
1 169
1 170
1 171
1 172
1 173
1 174
1 175
1 176
1 177
1 178
1 179
1 180
1 181
1 182
1 183
1 184
1 185
1 186
1 187
1 188
1 189
1 190
1 191
1 192
1 193
1 194
1 195
1 196
1 197
1 198
1 199
1 200
1 201
1 202
1 203
1 204
1 205
1 206
1 207
1 208
1 209
1 210

POINT_DATA 211
SCALARS scalars float 1
LOOKUP_TABLE default
0.000000
0.000000
0.000000
0.000000
0.000000
0.000000
0.000000
0.000000
0.000000
0.000000
0.000000
0.000000
0.000000
0.000000
0.000000
0.000000
0.000000
0.000000
0.000000
0.000000
0.000000
0.000000
0.000000
0.000000
0.000000
0.000000
0.000000
0.000000
0.000000
0.000000
0.000000
0.000000
0.000000
0.000000
0.000000
0.000000
0.000000
0.000000
0.000000
0.000000
0.000000
0.000000
0.000000
0.000000
0.000000
0.000000
0.000000
0.000000
0.000000
0.000000
0.000000
0.000000
0.000000
0.000000
0.000000
0.000000
0.000000
0.000000
0.000000
0.000000
0.000000
0.000000
0.000000
0.000000
0.000000
0.000000
0.000000
0.000000
0.000000
0.000000
0.000000
0.000000
0.000000
0.000000
0.000000
0.000000
0.000000
0.000000
0.000000
0.000000
0.000000
0.000000
0.000000
0.000000
0.000000
0.000000
0.000000
0.000000
0.000000
0.000000
0.000000
0.000000
0.000000
0.000000
0.000000
0.000000
0.000000
0.000000
0.000000
0.000000
0.000000
0.000000
0.000000
0.000000
0.000000
0.000000
0.000000
0.000000
0.000000
0.000000
0.000000
0.000000
0.000000
0.000000
0.000000
0.000000
0.000000
0.000000
0.000000
0.000000
0.000000
0.000000
0.000000
0.000000
0.000000
0.000000
0.000000
0.000000
0.000000
0.000000
0.000000
0.000000
0.000000
0.000000
0.000000
0.000000
0.000000
0.000000
0.000000
0.000000
0.000000
0.000000
0.000000
0.000000
0.000000
0.000000
0.000000
0.000000
0.000000
0.000000
0.000000
0.000000
0.000000
0.000000
0.000000
0.000000
0.000000
0.000000
0.000000
0.000000
0.000000
0.000000
0.000000
0.000000
0.000000
0.000000
0.000000
0.000000
0.000000
0.000000
0.000000
0.000000
0.000000
0.000000
0.000000
0.000000
0.000000
0.000000
0.000000
0.000000
0.000000
0.000000
0.000000
0.000000
0.000000
0.000000
0.000000
0.000000
0.000000
0.000000
0.000000
0.000000
0.000000
0.000000
0.000000
0.000000
0.000000
0.000000
0.000000
0.000000
0.000000
0.000000
0.000000
0.000000
0.000000
0.000000
0.000000
0.000000
0.000000
0.000000
0.000000
