# vtk DataFile Version 3.0
vtk output
ASCII
DATASET POLYDATA

POINTS 109 float
4989 52153 54444
24908 52628 60320
24750 49962 56446
26994 60073 59358
27284 61261 59332
26466 60258 59670
27192 59862 59722
27139 58212 60554
25344 54027 62452
23100 51414 58682
23760 52470 62868
24116 52153 63830
23522 50094 65702
24948 52707 60060
23469 51374 59124
22704 44431 53716
23760 40207 50778
22572 41580 51740
23377 45474 50596
25014 46173 49920
26241 47282 49478
26532 46833 49010
22598 41316 51116
21912 49632 54158
22572 49460 53950
20354 52826 56316
23403 54476 56030
23839 54212 55822
24024 42134 56472
24948 40273 56680
25251 39534 56862
25779 47731 54704
25885 47691 54444
26162 47493 53976
26598 48642 52468
26875 49077 51662
25040 56535 56394
24895 58581 56134
25212 58304 55692
26928 57314 55276
27337 57129 64324
26664 57327 64558
27126 57552 64792
24393 57090 63778
24459 57446 64090
24459 57063 64610
25634 54621 61672
27020 61116 58838
26043 56694 59384
25542 51876 59644
26162 52008 59956
24222 51757 60450
22334 55110 60684
21753 55176 59384
21555 55875 59046
21318 55836 57928
23694 38742 60918
27456 41421 61204
27060 39507 61412
27086 39085 61568
25674 46239 61932
26030 45672 62088
25977 46754 61360
24948 46530 62868
24024 46266 64636
23931 46490 65988
26466 45962 64922
26334 46662 63076
26624 46002 63050
27020 46002 63648
27522 46002 63778
26215 48642 61178
27297 49077 61984
27324 49315 62322
27548 48404 63180
20539 51546 56342
21054 50793 56758
20737 51453 56394
20367 51480 57070
20196 51282 56888
19087 53090 56914
16698 52285 56732
14493 52734 56654
12711 51427 56966
24169 47863 55562
24063 43890 55666
26268 49368 50726
24354 50358 59592
24565 58542 58916
25476 57710 59332
26637 55704 59124
25938 53592 59696
21582 55611 59384
24354 57525 65546
23654 57420 66742
23588 57420 67652
25212 55321 62920
21291 51282 57382
22440 52179 57590
22902 51084 57538
25410 52272 52650
25621 52074 52962
24697 53499 54678
23232 52470 56134
26532 48800 60840
25700 47124 60450
24090 45672 60138
23733 44774 59202
26532 42042 60476

VERTICES 109 218
1 0
1 1
1 2
1 3
1 4
1 5
1 6
1 7
1 8
1 9
1 10
1 11
1 12
1 13
1 14
1 15
1 16
1 17
1 18
1 19
1 20
1 21
1 22
1 23
1 24
1 25
1 26
1 27
1 28
1 29
1 30
1 31
1 32
1 33
1 34
1 35
1 36
1 37
1 38
1 39
1 40
1 41
1 42
1 43
1 44
1 45
1 46
1 47
1 48
1 49
1 50
1 51
1 52
1 53
1 54
1 55
1 56
1 57
1 58
1 59
1 60
1 61
1 62
1 63
1 64
1 65
1 66
1 67
1 68
1 69
1 70
1 71
1 72
1 73
1 74
1 75
1 76
1 77
1 78
1 79
1 80
1 81
1 82
1 83
1 84
1 85
1 86
1 87
1 88
1 89
1 90
1 91
1 92
1 93
1 94
1 95
1 96
1 97
1 98
1 99
1 100
1 101
1 102
1 103
1 104
1 105
1 106
1 107
1 108

POINT_DATA 109
SCALARS scalars float 1
LOOKUP_TABLE default
0.500000
0.500000
0.500000
0.500000
0.500000
0.500000
0.500000
0.500000
0.500000
0.500000
0.500000
0.500000
0.500000
0.500000
0.500000
0.500000
0.500000
0.500000
0.500000
0.500000
0.500000
0.500000
0.500000
0.500000
0.500000
0.500000
0.500000
0.500000
0.500000
0.500000
0.500000
0.500000
0.500000
0.500000
0.500000
0.500000
0.500000
0.500000
0.500000
0.500000
0.500000
0.500000
0.500000
0.500000
0.500000
0.500000
0.500000
0.500000
0.500000
0.500000
0.500000
0.500000
0.500000
0.500000
0.500000
0.500000
0.500000
0.500000
0.500000
0.500000
0.500000
0.500000
0.500000
0.500000
0.500000
0.500000
0.500000
0.500000
0.500000
0.500000
0.500000
0.500000
0.500000
0.500000
0.500000
0.500000
0.500000
0.500000
0.500000
0.500000
0.500000
0.500000
0.500000
0.500000
0.500000
0.500000
0.500000
0.500000
0.500000
0.500000
0.500000
0.500000
0.500000
0.500000
0.500000
0.500000
0.500000
0.500000
0.500000
0.500000
0.500000
0.500000
0.500000
0.500000
0.500000
0.500000
0.500000
0.500000
0.500000
