# vtk DataFile Version 3.0
vtk output
ASCII
DATASET POLYDATA

POINTS 306 float
5227 58806 50752
22308 41382 29562
21582 42081 28886
18084 61459 48698
22215 52549 52910
21159 53922 52988
21846 53539 53456
23588 56694 51454
23324 59268 50778
19470 59400 39468
21265 56628 38246
22017 49632 39416
23166 44616 40716
22638 40524 42250
22453 39230 44226
22083 41118 43680
22638 37646 45552
24855 56628 48672
24222 59439 41210
23100 57288 40976
22994 56232 39936
23826 54516 42432
24552 54291 45240
23641 55941 48542
23522 55308 46436
25581 48285 52416
23496 45038 57954
24816 55149 51168
24393 56773 51662
22202 53433 32968
23509 51493 28184
23232 51176 26858
24050 51031 26416
24354 52575 25090
22083 55149 23868
23694 52826 24518
24169 52272 32006
22730 49328 31200
22334 37620 29796
25106 50556 58500
25027 50331 57694
23918 50754 58448
25806 50160 60320
22506 49302 57018
22638 50067 62582
25753 49764 59280
25251 48272 57356
22176 52602 32084
22638 35442 28444
21516 41250 29276
22440 48840 32864
22506 47995 32838
22347 47652 33800
22268 48840 31772
20631 48972 31486
22585 53618 31460
23364 52470 30420
22875 52377 30264
23443 51612 30394
23192 51216 27612
23232 52008 26520
24657 50978 61360
19404 62396 43056
10098 57433 50674
14058 58872 50466
15774 60812 49374
18163 63241 44148
19602 63426 42848
20196 60997 41080
19602 61142 39780
19905 56852 39182
22585 53988 39364
21780 54186 39286
22638 51559 39624
23166 51810 39520
23100 48945 40040
22215 48945 39286
23166 46213 39884
23443 45223 39442
22968 47942 39754
22387 50028 38740
23892 52074 40534
24763 50833 40690
24750 49698 40924
23628 49447 40768
24618 49724 41444
24684 48747 41496
24420 49236 40924
24063 49632 41990
24723 51678 40508
23034 51981 39546
22017 50120 39234
21991 49434 39780
21014 46543 41990
20803 46754 42484
20724 47678 43212
20737 48021 43966
21027 47335 44382
22440 47388 41938
23060 48114 41626
22004 46200 41990
21318 46556 43108
19932 48391 44044
20605 45936 43056
23245 51678 26104
23641 53064 25974
23496 51374 25272
23707 51678 24882
23166 52800 24258
22057 53922 23608
20922 54014 23868
22506 54331 23686
21951 54978 24180
22110 53988 24518
22941 53328 24076
23311 53658 24804
23588 52074 24804
24129 51018 26832
22598 51704 29432
22374 52272 31200
23139 53037 31772
23786 51836 31980
22638 53328 34086
22875 53420 33358
20684 53961 35984
20328 55506 37310
22202 53856 31954
24974 48906 57148
25647 48932 57096
24776 50107 58864
23865 49777 58812
24248 49447 57486
22110 51519 54392
22334 53790 52806
21278 51876 54158
21067 53275 53638
23852 53803 51610
24090 54318 51480
23931 52219 51844
23958 48787 52910
22809 47810 54652
23931 48206 52702
22519 59175 50622
19351 60865 49478
23997 57446 51428
24367 56139 51948
25225 55123 51194
24842 55004 51298
24684 55770 51974
23852 55968 51298
24024 56324 50804
21001 59532 50648
23179 56984 31876
23179 55836 32136
23232 56100 31980
23364 56324 31798
23799 56166 32578
23667 46477 30550
23364 47348 30498
22598 48510 30888
23469 57024 32058
22849 54885 33410
18744 50094 31460
18427 49341 32474
20935 49711 30966
20658 49368 32942
21397 48708 32318
22057 47889 32526
23324 51678 31824
21714 43560 29744
22387 45183 29172
21661 40524 29406
19404 41527 28730
18493 41184 28600
19998 41514 28990
19364 42134 29042
20724 41910 29536
21978 40656 29146
23060 39903 29172
22783 39732 29198
22440 40458 30030
22110 42438 28704
22638 42042 28860
22704 42662 28990
21582 42174 29692
23139 40695 29536
22453 38253 29146
22664 39230 29094
22308 42385 29874
22004 43335 29952
22479 45804 29848
22862 46530 30082
23205 46332 30160
23430 35838 28288
21621 41448 29666
18414 41883 28366
22044 45210 29094
22717 46068 28314
22611 47691 28184
23496 47256 28652
23509 47876 28496
22836 47137 28782
23139 47282 27950
23166 46675 30732
23166 55440 40690
22374 56100 40352
23694 56496 39910
23311 54912 42692
23073 57552 39988
24684 58027 40456
24420 58146 40274
24261 58806 41496
22400 57499 40196
24618 56390 48984
24882 57354 49036
24024 44814 39598
23271 44444 39390
24235 43837 39416
23733 44418 38922
23298 41012 38662
23905 40999 39052
23865 41065 38506
23298 43890 39130
23865 41382 38168
24261 41646 37804
23060 40167 39234
23707 40431 39390
22875 39494 39442
22862 37686 40170
23205 37092 39988
24090 35904 39338
24657 36511 39416
23562 34623 38454
24024 36656 39910
24631 36458 40092
23443 36762 37648
24499 37092 38428
23047 36762 38740
23126 35019 38168
24063 36260 37674
23760 37527 39078
24182 40669 36712
24723 41025 37128
24380 41316 36270
22915 41989 35620
21001 42768 35698
20460 41553 35126
20301 40801 34450
20948 41646 34918
22902 42504 35776
22242 42636 36036
21186 42345 36036
23377 42279 35854
22677 44035 41002
22440 39943 42822
21001 38412 43186
21331 39758 44902
21542 41672 45552
22044 43533 45708
23760 43269 45656
23918 43058 45500
21542 42873 45630
21463 40207 43732
20922 37844 42302
21225 38478 40872
23245 43071 41392
22176 40695 42406
22506 54410 48802
22862 53037 48308
22730 51387 49114
20460 51110 49218
21146 50160 49452
23641 50503 49140
23430 50094 49348
23958 49368 48854
24618 48444 49244
24090 48668 48958
24156 49368 49296
24552 47520 49582
24987 48325 50830
25080 47995 50050
24855 46860 49140
23166 47652 49686
22466 47467 50882
22149 48510 48958
22440 47876 49088
21582 48021 49244
24486 44695 49244
24697 43995 49478
25040 44550 50076
25172 43890 51480
23892 44497 51116
24578 45276 50986
24301 44827 50414
24248 44088 49478
22479 46160 48984
25040 43203 51584
25119 44193 51012
22308 46728 48958
22651 46358 48438
23232 46530 58942
26545 45777 59670
22004 46134 56862
23562 44748 57460
22374 46266 57512
25845 45342 59904

VERTICES 306 612
1 0
1 1
1 2
1 3
1 4
1 5
1 6
1 7
1 8
1 9
1 10
1 11
1 12
1 13
1 14
1 15
1 16
1 17
1 18
1 19
1 20
1 21
1 22
1 23
1 24
1 25
1 26
1 27
1 28
1 29
1 30
1 31
1 32
1 33
1 34
1 35
1 36
1 37
1 38
1 39
1 40
1 41
1 42
1 43
1 44
1 45
1 46
1 47
1 48
1 49
1 50
1 51
1 52
1 53
1 54
1 55
1 56
1 57
1 58
1 59
1 60
1 61
1 62
1 63
1 64
1 65
1 66
1 67
1 68
1 69
1 70
1 71
1 72
1 73
1 74
1 75
1 76
1 77
1 78
1 79
1 80
1 81
1 82
1 83
1 84
1 85
1 86
1 87
1 88
1 89
1 90
1 91
1 92
1 93
1 94
1 95
1 96
1 97
1 98
1 99
1 100
1 101
1 102
1 103
1 104
1 105
1 106
1 107
1 108
1 109
1 110
1 111
1 112
1 113
1 114
1 115
1 116
1 117
1 118
1 119
1 120
1 121
1 122
1 123
1 124
1 125
1 126
1 127
1 128
1 129
1 130
1 131
1 132
1 133
1 134
1 135
1 136
1 137
1 138
1 139
1 140
1 141
1 142
1 143
1 144
1 145
1 146
1 147
1 148
1 149
1 150
1 151
1 152
1 153
1 154
1 155
1 156
1 157
1 158
1 159
1 160
1 161
1 162
1 163
1 164
1 165
1 166
1 167
1 168
1 169
1 170
1 171
1 172
1 173
1 174
1 175
1 176
1 177
1 178
1 179
1 180
1 181
1 182
1 183
1 184
1 185
1 186
1 187
1 188
1 189
1 190
1 191
1 192
1 193
1 194
1 195
1 196
1 197
1 198
1 199
1 200
1 201
1 202
1 203
1 204
1 205
1 206
1 207
1 208
1 209
1 210
1 211
1 212
1 213
1 214
1 215
1 216
1 217
1 218
1 219
1 220
1 221
1 222
1 223
1 224
1 225
1 226
1 227
1 228
1 229
1 230
1 231
1 232
1 233
1 234
1 235
1 236
1 237
1 238
1 239
1 240
1 241
1 242
1 243
1 244
1 245
1 246
1 247
1 248
1 249
1 250
1 251
1 252
1 253
1 254
1 255
1 256
1 257
1 258
1 259
1 260
1 261
1 262
1 263
1 264
1 265
1 266
1 267
1 268
1 269
1 270
1 271
1 272
1 273
1 274
1 275
1 276
1 277
1 278
1 279
1 280
1 281
1 282
1 283
1 284
1 285
1 286
1 287
1 288
1 289
1 290
1 291
1 292
1 293
1 294
1 295
1 296
1 297
1 298
1 299
1 300
1 301
1 302
1 303
1 304
1 305

POINT_DATA 306
SCALARS scalars float 1
LOOKUP_TABLE default
0.500000
0.500000
0.500000
0.500000
0.500000
0.500000
0.500000
0.500000
0.500000
0.500000
0.500000
0.500000
0.500000
0.500000
0.500000
0.500000
0.500000
0.500000
0.500000
0.500000
0.500000
0.500000
0.500000
0.500000
0.500000
0.500000
0.500000
0.500000
0.500000
0.500000
0.500000
0.500000
0.500000
0.500000
0.500000
0.500000
0.500000
0.500000
0.500000
0.500000
0.500000
0.500000
0.500000
0.500000
0.500000
0.500000
0.500000
0.500000
0.500000
0.500000
0.500000
0.500000
0.500000
0.500000
0.500000
0.500000
0.500000
0.500000
0.500000
0.500000
0.500000
0.500000
0.500000
0.500000
0.500000
0.500000
0.500000
0.500000
0.500000
0.500000
0.500000
0.500000
0.500000
0.500000
0.500000
0.500000
0.500000
0.500000
0.500000
0.500000
0.500000
0.500000
0.500000
0.500000
0.500000
0.500000
0.500000
0.500000
0.500000
0.500000
0.500000
0.500000
0.500000
0.500000
0.500000
0.500000
0.500000
0.500000
0.500000
0.500000
0.500000
0.500000
0.500000
0.500000
0.500000
0.500000
0.500000
0.500000
0.500000
0.500000
0.500000
0.500000
0.500000
0.500000
0.500000
0.500000
0.500000
0.500000
0.500000
0.500000
0.500000
0.500000
0.500000
0.500000
0.500000
0.500000
0.500000
0.500000
0.500000
0.500000
0.500000
0.500000
0.500000
0.500000
0.500000
0.500000
0.500000
0.500000
0.500000
0.500000
0.500000
0.500000
0.500000
0.500000
0.500000
0.500000
0.500000
0.500000
0.500000
0.500000
0.500000
0.500000
0.500000
0.500000
0.500000
0.500000
0.500000
0.500000
0.500000
0.500000
0.500000
0.500000
0.500000
0.500000
0.500000
0.500000
0.500000
0.500000
0.500000
0.500000
0.500000
0.500000
0.500000
0.500000
0.500000
0.500000
0.500000
0.500000
0.500000
0.500000
0.500000
0.500000
0.500000
0.500000
0.500000
0.500000
0.500000
0.500000
0.500000
0.500000
0.500000
0.500000
0.500000
0.500000
0.500000
0.500000
0.500000
0.500000
0.500000
0.500000
0.500000
0.500000
0.500000
0.500000
0.500000
0.500000
0.500000
0.500000
0.500000
0.500000
0.500000
0.500000
0.500000
0.500000
0.500000
0.500000
0.500000
0.500000
0.500000
0.500000
0.500000
0.500000
0.500000
0.500000
0.500000
0.500000
0.500000
0.500000
0.500000
0.500000
0.500000
0.500000
0.500000
0.500000
0.500000
0.500000
0.500000
0.500000
0.500000
0.500000
0.500000
0.500000
0.500000
0.500000
0.500000
0.500000
0.500000
0.500000
0.500000
0.500000
0.500000
0.500000
0.500000
0.500000
0.500000
0.500000
0.500000
0.500000
0.500000
0.500000
0.500000
0.500000
0.500000
0.500000
0.500000
0.500000
0.500000
0.500000
0.500000
0.500000
0.500000
0.500000
0.500000
0.500000
0.500000
0.500000
0.500000
0.500000
0.500000
0.500000
0.500000
0.500000
0.500000
0.500000
0.500000
0.500000
0.500000
0.500000
0.500000
0.500000
0.500000
0.500000
0.500000
0.500000
0.500000
0.500000
0.500000
0.500000
0.500000
0.500000
0.500000
0.500000
0.500000
0.500000
0.500000
0.500000
