# vtk DataFile Version 3.0
vtk output
ASCII
DATASET POLYDATA

POINTS 189 float
7497 56892 50258
10533 57090 50128
11748 57552 50414
12606 58185 50310
13992 59162 50362
14810 59809 50154
16183 60720 49452
17120 61261 49088
17820 61802 47762
18176 63056 44798
18480 50397 32422
18744 41778 28444
18757 63228 43862
18915 61010 49530
18968 52470 25376
19140 50424 33072
19272 49764 31746
19311 41712 28990
19628 62911 42458
19694 60918 40092
20064 53262 24128
20130 58621 38948
20156 48074 44772
20367 49935 33514
20407 60535 50336
20539 41580 34658
20565 55611 37232
20618 54846 36530
20869 56707 38272
20869 49500 31642
20895 39336 40456
20922 54054 35620
20922 42464 35152
21014 49077 33046
21054 41751 29562
21054 46992 43212
21080 47559 43862
21120 38940 41002
21133 38187 42510
21199 38755 43212
21318 50503 48880
21384 53961 23790
21450 53631 34502
21463 38425 41704
21516 52813 52988
21516 52668 53716
21529 49434 32864
21582 53671 33878
21661 41012 45370
21687 49434 48724
21714 45777 41964
21740 39428 44824
21753 55347 38896
21780 44550 41444
21780 46860 41912
21806 44378 40768
21925 39745 43732
21978 53460 32890
21978 51810 54470
21991 40933 29562
22017 48180 48880
22017 43032 46046
22044 53552 34086
22044 48576 32656
22110 41844 28808
22123 51638 48906
22123 44233 29562
22149 48114 54912
22176 59070 50648
22189 44299 29146
22242 36630 29042
22255 38016 29614
22374 47282 55822
22374 48404 33748
22374 47718 34632
22387 52866 39390
22387 50067 63596
22440 45342 28938
22466 49500 56576
22479 50318 39520
22506 50859 55666
22545 40946 42666
22585 38346 45474
22638 46041 30056
22677 54001 48646
22704 48747 31772
22730 46002 48750
22770 52892 33800
22783 48048 51272
22783 47612 41522
22796 56733 31590
22809 48457 39962
22902 52232 39702
22902 53460 24466
22902 43256 41106
22902 43573 45838
22902 47810 54158
22902 46358 56940
22915 52668 31668
22968 45830 40196
22968 56456 40586
22981 47916 35776
22994 55572 48516
23007 52404 31330
23007 54001 52234
23007 42108 35906
23034 54384 33202
23034 47784 30524
23073 35732 28236
23073 38517 39910
23100 47005 28418
23100 51942 28860
23113 52034 30550
23179 37514 39936
23232 55242 41392
23258 48708 50076
23298 49500 31356
23324 40339 39390
23364 50384 48958
23377 35455 38324
23430 55308 47580
23496 46015 57928
23496 36207 38142
23496 54780 42354
23509 50318 62114
23522 56100 32448
23575 55083 46436
23588 44655 39884
23760 52074 24960
23760 43784 39260
23799 36696 38844
23799 58278 40144
23839 51506 27352
23892 51942 26130
23905 41817 38818
23905 54714 45630
23958 42068 37908
23958 54344 43498
23997 59677 40898
24024 48747 49114
24024 52219 31980
24024 51282 24726
24024 43124 45760
24090 48338 49608
24090 37857 46020
24103 46147 59150
24116 54516 44122
24129 44682 49374
24129 48114 53300
24156 48444 41522
24156 47559 36712
24248 56971 48516
24248 56971 50960
24288 49196 41314
24288 41118 36738
24314 51546 40430
24327 50516 40768
24367 54648 44824
24367 58872 40794
24459 51876 51922
24486 37989 46826
24486 54727 51948
24499 49605 57642
24552 44563 50830
24684 47269 49062
24697 51110 61048
24710 44497 52754
24776 44233 52130
24789 47823 50076
24789 48536 52442
24829 47348 41574
24895 56865 50284
24948 49302 58266
24974 56892 49322
25080 48351 51584
25344 49632 59228
25423 46226 41652
25515 48483 51012
25542 48906 57772
25608 39270 41158
25647 50463 60216
25647 45566 59800
25753 40867 41600
25806 38742 40430
25977 48048 56966
26017 44642 41600
26215 47784 56394
26215 42583 41548
26215 45896 59306

LINES 188 564
2 0 1
2 1 2
2 2 3
2 3 4
2 4 5
2 5 6
2 6 7
2 7 8
2 8 9
2 15 10
2 17 11
2 9 12
2 7 13
2 20 14
2 23 15
2 10 16
2 34 17
2 12 18
2 18 19
2 41 20
2 19 21
2 36 22
2 33 23
2 13 24
2 32 25
2 28 26
2 26 27
2 21 28
2 16 29
2 37 30
2 27 31
2 105 32
2 63 33
2 59 34
2 54 35
2 35 36
2 43 37
2 39 38
2 56 39
2 65 40
2 93 41
2 31 42
2 38 43
2 104 44
2 44 45
2 29 46
2 62 47
2 51 48
2 40 49
2 54 50
2 56 51
2 28 52
2 50 53
2 89 54
2 53 55
2 81 56
2 47 57
2 45 58
2 64 59
2 49 60
2 48 61
2 42 62
2 85 63
2 69 64
2 84 65
2 83 66
2 96 67
2 24 68
2 66 69
2 71 70
2 59 71
2 67 72
2 63 73
2 73 74
2 52 75
2 124 76
2 69 77
2 80 78
2 75 79
2 58 80
2 94 81
2 51 82
2 107 83
2 102 84
2 116 85
2 60 86
2 62 87
2 115 88
2 149 89
2 125 90
2 79 91
2 75 92
2 128 93
2 99 94
2 61 95
2 148 96
2 72 97
2 57 98
2 91 99
2 114 100
2 74 101
2 151 102
2 98 103
2 161 104
2 154 105
2 87 106
2 116 107
2 70 108
2 117 109
2 77 110
2 112 111
2 103 112
2 109 113
2 123 114
2 143 115
2 103 116
2 134 117
2 65 118
2 122 119
2 102 120
2 97 121
2 130 122
2 137 123
2 165 124
2 106 125
2 120 126
2 99 127
2 133 128
2 127 129
2 113 130
2 100 131
2 111 132
2 132 133
2 129 134
2 126 135
2 134 136
2 146 137
2 158 138
2 118 139
2 103 140
2 128 141
2 95 142
2 139 143
2 82 144
2 121 145
2 157 146
2 86 147
2 169 148
2 153 149
2 101 150
2 173 151
2 68 152
2 156 153
2 136 154
2 92 155
2 155 156
2 135 157
2 131 158
2 161 159
2 144 160
2 152 161
2 78 162
2 147 163
2 139 164
2 180 165
2 167 166
2 163 167
2 143 168
2 159 169
2 149 170
2 152 171
2 162 172
2 171 173
2 177 174
2 172 175
2 170 176
2 168 177
2 172 178
2 182 179
2 175 180
2 145 181
2 187 182
2 179 183
2 178 184
2 176 185
2 184 186
2 185 187
2 181 188

VERTICES 189 378
1 0
1 1
1 2
1 3
1 4
1 5
1 6
1 7
1 8
1 9
1 10
1 11
1 12
1 13
1 14
1 15
1 16
1 17
1 18
1 19
1 20
1 21
1 22
1 23
1 24
1 25
1 26
1 27
1 28
1 29
1 30
1 31
1 32
1 33
1 34
1 35
1 36
1 37
1 38
1 39
1 40
1 41
1 42
1 43
1 44
1 45
1 46
1 47
1 48
1 49
1 50
1 51
1 52
1 53
1 54
1 55
1 56
1 57
1 58
1 59
1 60
1 61
1 62
1 63
1 64
1 65
1 66
1 67
1 68
1 69
1 70
1 71
1 72
1 73
1 74
1 75
1 76
1 77
1 78
1 79
1 80
1 81
1 82
1 83
1 84
1 85
1 86
1 87
1 88
1 89
1 90
1 91
1 92
1 93
1 94
1 95
1 96
1 97
1 98
1 99
1 100
1 101
1 102
1 103
1 104
1 105
1 106
1 107
1 108
1 109
1 110
1 111
1 112
1 113
1 114
1 115
1 116
1 117
1 118
1 119
1 120
1 121
1 122
1 123
1 124
1 125
1 126
1 127
1 128
1 129
1 130
1 131
1 132
1 133
1 134
1 135
1 136
1 137
1 138
1 139
1 140
1 141
1 142
1 143
1 144
1 145
1 146
1 147
1 148
1 149
1 150
1 151
1 152
1 153
1 154
1 155
1 156
1 157
1 158
1 159
1 160
1 161
1 162
1 163
1 164
1 165
1 166
1 167
1 168
1 169
1 170
1 171
1 172
1 173
1 174
1 175
1 176
1 177
1 178
1 179
1 180
1 181
1 182
1 183
1 184
1 185
1 186
1 187
1 188

POINT_DATA 189
SCALARS scalars float 1
LOOKUP_TABLE default
0.000000
0.000000
0.000000
0.000000
0.000000
0.000000
0.000000
0.000000
0.000000
0.000000
0.000000
0.000000
0.000000
0.000000
0.000000
0.000000
0.000000
0.000000
0.000000
0.000000
0.000000
0.000000
0.000000
0.000000
0.000000
0.000000
0.000000
0.000000
0.000000
0.000000
0.000000
0.000000
0.000000
0.000000
0.000000
0.000000
0.000000
0.000000
0.000000
0.000000
0.000000
0.000000
0.000000
0.000000
0.000000
0.000000
0.000000
0.000000
0.000000
0.000000
0.000000
0.000000
0.000000
0.000000
0.000000
0.000000
0.000000
0.000000
0.000000
0.000000
0.000000
0.000000
0.000000
0.000000
0.000000
0.000000
0.000000
0.000000
0.000000
0.000000
0.000000
0.000000
0.000000
0.000000
0.000000
0.000000
0.000000
0.000000
0.000000
0.000000
0.000000
0.000000
0.000000
0.000000
0.000000
0.000000
0.000000
0.000000
0.000000
0.000000
0.000000
0.000000
0.000000
0.000000
0.000000
0.000000
0.000000
0.000000
0.000000
0.000000
0.000000
0.000000
0.000000
0.000000
0.000000
0.000000
0.000000
0.000000
0.000000
0.000000
0.000000
0.000000
0.000000
0.000000
0.000000
0.000000
0.000000
0.000000
0.000000
0.000000
0.000000
0.000000
0.000000
0.000000
0.000000
0.000000
0.000000
0.000000
0.000000
0.000000
0.000000
0.000000
0.000000
0.000000
0.000000
0.000000
0.000000
0.000000
0.000000
0.000000
0.000000
0.000000
0.000000
0.000000
0.000000
0.000000
0.000000
0.000000
0.000000
0.000000
0.000000
0.000000
0.000000
0.000000
0.000000
0.000000
0.000000
0.000000
0.000000
0.000000
0.000000
0.000000
0.000000
0.000000
0.000000
0.000000
0.000000
0.000000
0.000000
0.000000
0.000000
0.000000
0.000000
0.000000
0.000000
0.000000
0.000000
0.000000
0.000000
0.000000
0.000000
0.000000
0.000000
0.000000
0.000000
0.000000
0.000000
0.000000
0.000000
