# vtk DataFile Version 3.0
vtk output
ASCII
DATASET POLYDATA

POINTS 219 float
6441 32670 78546
21120 52074 60476
23984 26703 84344
25172 27667 84760
26492 27469 86216
25806 27588 84916
28868 31020 80782
28446 32907 83070
28683 32604 82992
23456 27337 72072
26611 27693 74386
24961 26334 71968
24354 27918 71864
22770 26400 70876
22704 26175 71838
19681 26545 74334
23192 29330 66664
21846 34518 62348
22413 38280 61880
22836 37422 60866
20618 36458 60658
21912 35244 61386
22704 35904 61126
26796 36049 56238
25489 36709 56342
23364 38979 56966
25634 38781 61750
23166 39468 57928
22717 54054 62374
21938 50754 62530
21727 51242 62374
23733 47084 61932
22110 47731 61776
22545 46622 62062
23232 47005 62452
24948 49407 65312
24525 48708 65468
23918 48972 65858
23984 48140 65598
22242 47282 64376
23337 46596 65676
25410 44325 63310
23232 35772 66664
24103 41184 67808
25238 42477 67106
29132 39560 67990
28512 38874 68068
27337 33633 69160
27957 36102 67522
27825 36828 66924
25555 42240 65338
24750 43124 65598
25753 41382 64688
26373 39362 64428
27324 39204 65078
26941 38808 64792
26875 36471 66664
26994 37158 66196
27852 37686 66040
27139 38900 65702
26994 39468 65000
28459 28314 68146
25753 30056 67600
25753 28947 66300
25951 30030 67964
27865 29013 68146
28116 29238 67444
25621 28380 65468
25515 29436 68250
22915 31521 69368
22915 30399 68822
23364 30716 69420
21463 31046 70174
19087 30795 73372
24578 39824 72384
25344 42438 75608
25146 42530 75816
24763 42900 77246
25146 42015 76492
25581 41091 74386
25436 41910 75582
24024 41580 69966
24248 41144 69888
24156 41989 69914
23522 40392 70824
23192 40128 71058
28617 36933 80132
28921 36960 80782
28723 36775 80964
26413 35059 81770
26373 34135 82446
25291 33132 83512
24750 31125 83538
24750 30624 83408
23113 30465 82498
22968 30703 82316
21714 32181 83382
23192 30782 82108
22875 30782 82966
16975 30703 77298
15444 29330 76388
15813 30663 77246
15444 28525 75504
22783 31416 73294
25476 29000 77870
22928 31772 76102
23496 41448 81250
23628 42807 81224
24314 38148 81302
26743 24908 77038
24723 25278 76830
26202 36445 70096
27799 33897 69316
26664 35244 69810
25872 32802 71188
25040 33396 71032
25740 32815 70798
24948 32472 71292
19734 30624 73216
21252 31614 73736
20460 30531 73736
23377 27403 68146
28868 26241 69212
28129 26360 70590
27918 24301 70668
27588 23773 69940
28116 24116 68978
26109 24024 68484
25159 25608 68640
20328 27720 69004
28010 36960 75166
29000 36036 71604
28644 37039 71682
24235 32538 72332
28974 26004 69342
29185 26571 69342
27746 25938 70096
28221 24129 69498
24327 32775 63804
22506 29106 66092
22704 29277 66950
19615 28446 71552
24446 42213 77922
24090 40801 72592
21318 38979 71162
21516 39547 71370
20935 36577 70876
21093 36392 71500
15972 31257 74126
26994 41052 70720
27957 42042 70980
27680 41263 71448
28221 41250 70642
27812 40563 70148
27878 42002 70330
28142 44444 70252
27271 45157 71890
28314 47163 68354
26994 41949 70850
23100 48972 71682
25410 46569 72488
25568 44101 72332
27984 35838 68952
27944 45500 59020
27482 46622 59202
26466 47097 61438
27891 47454 62218
26136 38887 65390
17041 31033 77532
27456 36445 71006
28221 36564 71266
28525 37778 73814
28459 36960 73762
26677 36603 74568
27588 36194 74230
27482 38187 76258
25819 33739 70278
25845 33132 70226
15312 29238 76180
15325 29304 76674
20433 26347 72826
26967 34425 79144
20565 35508 70980
21291 38042 73710
20724 36696 72306
22862 39468 75166
24354 39204 76648
20895 36168 75920
23060 28749 67782
23654 27020 67834
28076 26954 70642
25423 25146 68640
23654 27522 67730
25608 30307 65260
24063 31983 64324
26730 32498 79066
26730 31838 79092
25872 30769 77818
26307 30162 77532
24314 31944 75920
22875 31310 76388
25080 33554 75374
26637 30492 77220
25344 25872 77220
26994 24816 76674
25555 25819 77896
22968 25476 76362
24591 25053 79196
25146 33303 83356
23034 32010 82420
23034 34267 80236
24565 35191 72800
25581 33330 74620
26334 30822 78416
27284 36920 75478
27007 47493 61542
27192 47942 61516
27852 47665 61178
26941 47744 60970

VERTICES 219 438
1 0
1 1
1 2
1 3
1 4
1 5
1 6
1 7
1 8
1 9
1 10
1 11
1 12
1 13
1 14
1 15
1 16
1 17
1 18
1 19
1 20
1 21
1 22
1 23
1 24
1 25
1 26
1 27
1 28
1 29
1 30
1 31
1 32
1 33
1 34
1 35
1 36
1 37
1 38
1 39
1 40
1 41
1 42
1 43
1 44
1 45
1 46
1 47
1 48
1 49
1 50
1 51
1 52
1 53
1 54
1 55
1 56
1 57
1 58
1 59
1 60
1 61
1 62
1 63
1 64
1 65
1 66
1 67
1 68
1 69
1 70
1 71
1 72
1 73
1 74
1 75
1 76
1 77
1 78
1 79
1 80
1 81
1 82
1 83
1 84
1 85
1 86
1 87
1 88
1 89
1 90
1 91
1 92
1 93
1 94
1 95
1 96
1 97
1 98
1 99
1 100
1 101
1 102
1 103
1 104
1 105
1 106
1 107
1 108
1 109
1 110
1 111
1 112
1 113
1 114
1 115
1 116
1 117
1 118
1 119
1 120
1 121
1 122
1 123
1 124
1 125
1 126
1 127
1 128
1 129
1 130
1 131
1 132
1 133
1 134
1 135
1 136
1 137
1 138
1 139
1 140
1 141
1 142
1 143
1 144
1 145
1 146
1 147
1 148
1 149
1 150
1 151
1 152
1 153
1 154
1 155
1 156
1 157
1 158
1 159
1 160
1 161
1 162
1 163
1 164
1 165
1 166
1 167
1 168
1 169
1 170
1 171
1 172
1 173
1 174
1 175
1 176
1 177
1 178
1 179
1 180
1 181
1 182
1 183
1 184
1 185
1 186
1 187
1 188
1 189
1 190
1 191
1 192
1 193
1 194
1 195
1 196
1 197
1 198
1 199
1 200
1 201
1 202
1 203
1 204
1 205
1 206
1 207
1 208
1 209
1 210
1 211
1 212
1 213
1 214
1 215
1 216
1 217
1 218

POINT_DATA 219
SCALARS scalars float 1
LOOKUP_TABLE default
0.500000
0.500000
0.500000
0.500000
0.500000
0.500000
0.500000
0.500000
0.500000
0.500000
0.500000
0.500000
0.500000
0.500000
0.500000
0.500000
0.500000
0.500000
0.500000
0.500000
0.500000
0.500000
0.500000
0.500000
0.500000
0.500000
0.500000
0.500000
0.500000
0.500000
0.500000
0.500000
0.500000
0.500000
0.500000
0.500000
0.500000
0.500000
0.500000
0.500000
0.500000
0.500000
0.500000
0.500000
0.500000
0.500000
0.500000
0.500000
0.500000
0.500000
0.500000
0.500000
0.500000
0.500000
0.500000
0.500000
0.500000
0.500000
0.500000
0.500000
0.500000
0.500000
0.500000
0.500000
0.500000
0.500000
0.500000
0.500000
0.500000
0.500000
0.500000
0.500000
0.500000
0.500000
0.500000
0.500000
0.500000
0.500000
0.500000
0.500000
0.500000
0.500000
0.500000
0.500000
0.500000
0.500000
0.500000
0.500000
0.500000
0.500000
0.500000
0.500000
0.500000
0.500000
0.500000
0.500000
0.500000
0.500000
0.500000
0.500000
0.500000
0.500000
0.500000
0.500000
0.500000
0.500000
0.500000
0.500000
0.500000
0.500000
0.500000
0.500000
0.500000
0.500000
0.500000
0.500000
0.500000
0.500000
0.500000
0.500000
0.500000
0.500000
0.500000
0.500000
0.500000
0.500000
0.500000
0.500000
0.500000
0.500000
0.500000
0.500000
0.500000
0.500000
0.500000
0.500000
0.500000
0.500000
0.500000
0.500000
0.500000
0.500000
0.500000
0.500000
0.500000
0.500000
0.500000
0.500000
0.500000
0.500000
0.500000
0.500000
0.500000
0.500000
0.500000
0.500000
0.500000
0.500000
0.500000
0.500000
0.500000
0.500000
0.500000
0.500000
0.500000
0.500000
0.500000
0.500000
0.500000
0.500000
0.500000
0.500000
0.500000
0.500000
0.500000
0.500000
0.500000
0.500000
0.500000
0.500000
0.500000
0.500000
0.500000
0.500000
0.500000
0.500000
0.500000
0.500000
0.500000
0.500000
0.500000
0.500000
0.500000
0.500000
0.500000
0.500000
0.500000
0.500000
0.500000
0.500000
0.500000
0.500000
0.500000
0.500000
0.500000
0.500000
0.500000
0.500000
0.500000
0.500000
0.500000
0.500000
0.500000
0.500000
0.500000
0.500000
0.500000
0.500000
0.500000
