# vtk DataFile Version 3.0
vtk output
ASCII
DATASET POLYDATA

POINTS 155 float
19800 52905 46228
25872 46477 45994
24882 58449 44512
24618 50965 47788
22070 42596 42406
22902 41685 38584
23060 42134 40872
22981 41910 40794
25740 42504 51324
25938 45447 50934
27284 44365 50596
25806 44946 51766
27284 44880 50570
25449 46028 51220
25410 46358 51766
25608 47889 51168
24750 51321 50154
23628 51110 50700
24895 50160 50778
24393 50978 50726
24420 51361 49712
26030 49962 47632
25080 50186 47658
26070 50965 48204
26004 50226 48074
23337 52008 48516
21648 51282 47502
21357 52404 47814
22968 50661 40690
23628 52100 38870
26004 57499 50258
25449 57420 49686
23364 49935 44018
21410 50754 44902
15391 54054 46826
22585 49935 43160
25911 42240 43160
26149 42609 40404
25938 42187 40534
26268 46635 39806
26281 46926 39234
25885 46305 39234
25423 47454 38610
24855 47467 37804
24987 46477 37596
24816 46609 35854
22083 44959 43004
21648 43705 42458
22862 42372 40066
22704 42068 39676
26202 57169 50232
26241 57710 49582
25885 57024 50206
19602 52932 47190
18374 53301 46826
23984 57657 47918
19509 52536 46696
15338 54780 46800
15246 54740 46072
18915 54357 46618
22902 47163 48880
26466 50424 47762
23430 51678 48204
25040 50516 48334
27297 44880 50986
27324 45751 50752
27073 46015 51272
26228 45896 51532
25872 58977 37960
25225 55677 39910
21753 54714 44798
22136 54225 44980
20658 52760 46488
24393 58344 50570
24420 60020 51454
23377 60099 51428
23522 60561 52624
25357 56892 51428
24816 59466 51324
23562 60693 52312
24855 43494 45240
25568 41738 47372
25806 41184 48100
25212 46688 45474
26360 46728 47164
26400 41091 47372
23232 46662 48230
22044 62040 50804
22308 62792 49400
23760 55981 42796
24195 55466 42224
24486 52338 43524
23839 49962 43160
26070 41712 43368
24182 45909 42640
24393 46464 43290
23865 46899 43368
24248 52140 42952
23430 51493 43082
20130 53592 45344
23469 55598 43108
25212 57367 44174
25977 57037 44538
25872 57486 43888
26664 58608 44798
26400 58977 44564
26730 59439 45058
26162 59373 44876
25014 56166 45474
26004 56628 44720
25938 56430 44408
24750 56786 44564
25449 56139 43836
26730 52707 41106
25542 52998 40508
25951 54133 39910
26439 53394 41158
26175 53460 39910
24380 51084 41756
22981 50793 41418
22321 50318 40612
24327 55215 41132
25383 56469 39156
25621 58476 38766
22796 54819 50180
22308 55308 50180
22334 55743 50804
24129 55400 49244
22770 56641 50258
24948 53156 51740
25080 52932 52052
24446 58700 51376
23918 58159 50206
22638 62317 51324
22809 63360 49140
22651 62475 49842
23245 56469 49426
23047 48932 43966
24129 45051 43264
22374 45474 43030
22374 44550 42276
22083 44114 41392
22677 44721 43264
23694 45302 43056
24037 46503 42874
25106 43375 42822
25911 41672 43056
25383 42372 47164
23337 46292 44018
23799 53684 44668
23826 53262 43940
23588 51493 38896
22413 50028 41002
24235 53011 44642
24222 59202 50440

VERTICES 155 310
1 0
1 1
1 2
1 3
1 4
1 5
1 6
1 7
1 8
1 9
1 10
1 11
1 12
1 13
1 14
1 15
1 16
1 17
1 18
1 19
1 20
1 21
1 22
1 23
1 24
1 25
1 26
1 27
1 28
1 29
1 30
1 31
1 32
1 33
1 34
1 35
1 36
1 37
1 38
1 39
1 40
1 41
1 42
1 43
1 44
1 45
1 46
1 47
1 48
1 49
1 50
1 51
1 52
1 53
1 54
1 55
1 56
1 57
1 58
1 59
1 60
1 61
1 62
1 63
1 64
1 65
1 66
1 67
1 68
1 69
1 70
1 71
1 72
1 73
1 74
1 75
1 76
1 77
1 78
1 79
1 80
1 81
1 82
1 83
1 84
1 85
1 86
1 87
1 88
1 89
1 90
1 91
1 92
1 93
1 94
1 95
1 96
1 97
1 98
1 99
1 100
1 101
1 102
1 103
1 104
1 105
1 106
1 107
1 108
1 109
1 110
1 111
1 112
1 113
1 114
1 115
1 116
1 117
1 118
1 119
1 120
1 121
1 122
1 123
1 124
1 125
1 126
1 127
1 128
1 129
1 130
1 131
1 132
1 133
1 134
1 135
1 136
1 137
1 138
1 139
1 140
1 141
1 142
1 143
1 144
1 145
1 146
1 147
1 148
1 149
1 150
1 151
1 152
1 153
1 154

POINT_DATA 155
SCALARS scalars float 1
LOOKUP_TABLE default
0.500000
0.500000
0.500000
0.500000
0.500000
0.500000
0.500000
0.500000
0.500000
0.500000
0.500000
0.500000
0.500000
0.500000
0.500000
0.500000
0.500000
0.500000
0.500000
0.500000
0.500000
0.500000
0.500000
0.500000
0.500000
0.500000
0.500000
0.500000
0.500000
0.500000
0.500000
0.500000
0.500000
0.500000
0.500000
0.500000
0.500000
0.500000
0.500000
0.500000
0.500000
0.500000
0.500000
0.500000
0.500000
0.500000
0.500000
0.500000
0.500000
0.500000
0.500000
0.500000
0.500000
0.500000
0.500000
0.500000
0.500000
0.500000
0.500000
0.500000
0.500000
0.500000
0.500000
0.500000
0.500000
0.500000
0.500000
0.500000
0.500000
0.500000
0.500000
0.500000
0.500000
0.500000
0.500000
0.500000
0.500000
0.500000
0.500000
0.500000
0.500000
0.500000
0.500000
0.500000
0.500000
0.500000
0.500000
0.500000
0.500000
0.500000
0.500000
0.500000
0.500000
0.500000
0.500000
0.500000
0.500000
0.500000
0.500000
0.500000
0.500000
0.500000
0.500000
0.500000
0.500000
0.500000
0.500000
0.500000
0.500000
0.500000
0.500000
0.500000
0.500000
0.500000
0.500000
0.500000
0.500000
0.500000
0.500000
0.500000
0.500000
0.500000
0.500000
0.500000
0.500000
0.500000
0.500000
0.500000
0.500000
0.500000
0.500000
0.500000
0.500000
0.500000
0.500000
0.500000
0.500000
0.500000
0.500000
0.500000
0.500000
0.500000
0.500000
0.500000
0.500000
0.500000
0.500000
0.500000
0.500000
0.500000
0.500000
0.500000
0.500000
0.500000
0.500000
