# vtk DataFile Version 3.0
vtk output
ASCII
DATASET POLYDATA

POINTS 273 float
6336 33330 76492
22453 36788 80262
23958 34346 79482
22572 35191 80392
22334 35376 80002
14335 40405 86502
20737 44457 84240
19734 45487 83538
12870 38108 88842
13609 39692 87256
13147 39666 88140
14031 38425 88244
16909 29515 73190
21120 30756 71656
22849 30729 72488
17490 30228 79040
17133 30135 78598
16328 28063 79014
19681 36524 79690
20077 38240 77740
19430 37844 73164
12342 33818 75634
15457 36894 79534
16566 38425 81536
16790 38214 85878
16988 38742 86242
17978 38148 87256
13002 37158 88218
13728 36854 87880
15351 41646 85462
15127 44418 85722
13926 46662 86112
14256 45408 86762
13662 46107 85878
13701 45540 86580
14942 45751 85540
13807 46411 85644
14414 44286 85904
14757 42279 85930
14071 42398 86866
15087 42464 86918
15180 37527 86372
14810 39283 83434
15444 38082 83486
13886 31627 74282
22770 36458 74958
22849 36168 74958
21516 36577 73866
22242 35508 72566
20750 40656 69290
20565 39956 67730
21199 39270 68016
22308 30030 72436
16473 30782 72670
20024 29251 72254
16500 29990 72514
15945 29977 73970
16262 29964 73918
16302 31020 73554
17094 30096 72358
21529 33660 81536
22862 32841 83122
22044 32564 83876
22149 33000 84032
22915 32881 83382
22176 33224 82368
21714 32815 80158
20605 32208 80106
20922 34293 79846
20473 33792 79326
19575 37131 77818
20196 37646 79196
19087 38042 79612
19879 37593 79898
19113 37686 77740
19100 37158 75036
19113 37435 76362
19747 37369 75504
19272 36894 75166
15444 34531 74386
16526 34452 73840
11748 36247 74698
18546 30228 70564
26664 38544 73788
14480 39943 72072
17833 27588 79976
16500 30439 78936
16922 26532 80002
14295 31086 76596
15945 32815 75192
15681 33000 74048
17094 30967 72280
18678 29964 72202
21318 28749 72644
19100 30109 71786
17397 35851 76804
20605 34980 89986
21793 36775 90376
22374 35125 89778
20235 38702 87776
15074 39626 83642
21120 40933 86450
22189 45619 82472
21278 43982 84682
22044 43599 84162
20592 42200 86424
14982 41355 87256
16671 39309 81198
16434 36907 80366
17054 36036 76466
17107 33726 74854
16368 33607 74412
13200 38253 72982
15180 48114 68926
13939 49434 67236
13464 48774 67652
14084 48074 66846
15048 46345 69082
16698 49315 67262
16249 48642 68276
14322 46688 69966
13952 40761 71942
13886 38214 73008
14269 34386 73970
18110 36062 74022
20103 39943 73086
20935 40167 73606
20090 40154 74542
20790 39811 71526
21648 35877 74152
24037 36102 74360
25291 38346 73424
26241 40458 73216
24525 37712 73866
16236 36062 74178
17252 35085 73632
17965 35851 73502
12764 36300 74464
19536 39230 78910
13266 48721 67236
15549 34953 89076
19219 38874 86554
16341 46820 69056
14863 42042 72280
12870 36432 73762
11048 35653 74906
15642 36168 73840
15048 35376 74022
13292 36498 73268
17886 36920 73632
17754 36933 73970
19734 37620 76154
12777 38108 88140
24156 39666 76024
23443 39547 76024
22677 47863 82472
21951 47084 81640
15087 35547 90194
16038 35310 90116
15721 36432 87646
19760 37290 72826
14955 36300 89596
15048 34993 89128
14982 36564 91078
15404 37554 86450
16434 42543 86580
12843 38834 87438
12909 37488 87568
12751 32907 75192
13134 32247 74594
12883 33858 74256
13701 34953 74308
12408 35996 75114
14229 31323 74308
13728 31772 74178
14995 32960 74074
13503 32841 73892
14995 32419 73710
11022 34663 76154
12553 36062 73372
13490 38953 72046
13833 40616 71058
15259 41197 72436
15140 34425 73424
14929 34914 73268
12500 36102 73814
13371 40101 71786
15338 42741 72254
14322 47823 68640
14005 48985 66482
17358 51506 66872
14520 46173 70174
14995 47678 69524
15444 47612 68432
14454 47137 69316
14533 44616 71110
17503 35970 73242
18255 37184 73060
21186 36273 73138
22743 34874 74152
23865 35376 74308
24486 37765 74152
27390 40827 73476
27667 40392 73060
25687 40088 73216
25581 39996 74412
26083 39468 72904
23047 35508 74828
22110 37263 74386
23443 37554 75192
22981 37620 74906
23628 38874 76310
24552 38715 75088
24024 38095 77558
21186 40497 72332
20499 40656 72540
12474 35679 75010
16500 50120 67834
15668 42147 72488
16447 34663 75010
17397 34557 76050
16724 36603 76778
15919 35904 78884
15906 38412 78650
15972 37092 78286
16962 36590 77948
16579 37290 80210
15813 37778 79716
15510 36432 79092
15800 37316 80808
16500 39428 81120
16645 38808 85176
18348 39666 86502
17648 38847 87152
18744 39006 88140
21054 36339 89206
22466 35178 90454
21476 34082 90376
19800 38557 87074
17701 39217 87308
18374 39336 87906
19153 38372 87880
18084 38517 87646
16368 39362 84292
20143 42675 85618
21093 43560 85254
21846 43177 84474
22572 46899 82290
21252 47850 82316
20988 46503 82056
21780 44180 83460
20922 47190 81874
20724 41355 85930
20961 41052 67028
13266 37092 72826
20341 36498 79196
23852 33726 79482
26835 40682 73216
14797 30558 76700
24169 37844 78078
15378 32379 74802
16645 33726 75868
22242 33264 82784
22466 35772 90766
19971 37752 87672
15998 39573 83200
22044 32868 82160
20750 38253 88088
19668 30769 69290
18942 29805 69498
19047 30399 69992
21318 28947 72332
17265 29634 72826

VERTICES 273 546
1 0
1 1
1 2
1 3
1 4
1 5
1 6
1 7
1 8
1 9
1 10
1 11
1 12
1 13
1 14
1 15
1 16
1 17
1 18
1 19
1 20
1 21
1 22
1 23
1 24
1 25
1 26
1 27
1 28
1 29
1 30
1 31
1 32
1 33
1 34
1 35
1 36
1 37
1 38
1 39
1 40
1 41
1 42
1 43
1 44
1 45
1 46
1 47
1 48
1 49
1 50
1 51
1 52
1 53
1 54
1 55
1 56
1 57
1 58
1 59
1 60
1 61
1 62
1 63
1 64
1 65
1 66
1 67
1 68
1 69
1 70
1 71
1 72
1 73
1 74
1 75
1 76
1 77
1 78
1 79
1 80
1 81
1 82
1 83
1 84
1 85
1 86
1 87
1 88
1 89
1 90
1 91
1 92
1 93
1 94
1 95
1 96
1 97
1 98
1 99
1 100
1 101
1 102
1 103
1 104
1 105
1 106
1 107
1 108
1 109
1 110
1 111
1 112
1 113
1 114
1 115
1 116
1 117
1 118
1 119
1 120
1 121
1 122
1 123
1 124
1 125
1 126
1 127
1 128
1 129
1 130
1 131
1 132
1 133
1 134
1 135
1 136
1 137
1 138
1 139
1 140
1 141
1 142
1 143
1 144
1 145
1 146
1 147
1 148
1 149
1 150
1 151
1 152
1 153
1 154
1 155
1 156
1 157
1 158
1 159
1 160
1 161
1 162
1 163
1 164
1 165
1 166
1 167
1 168
1 169
1 170
1 171
1 172
1 173
1 174
1 175
1 176
1 177
1 178
1 179
1 180
1 181
1 182
1 183
1 184
1 185
1 186
1 187
1 188
1 189
1 190
1 191
1 192
1 193
1 194
1 195
1 196
1 197
1 198
1 199
1 200
1 201
1 202
1 203
1 204
1 205
1 206
1 207
1 208
1 209
1 210
1 211
1 212
1 213
1 214
1 215
1 216
1 217
1 218
1 219
1 220
1 221
1 222
1 223
1 224
1 225
1 226
1 227
1 228
1 229
1 230
1 231
1 232
1 233
1 234
1 235
1 236
1 237
1 238
1 239
1 240
1 241
1 242
1 243
1 244
1 245
1 246
1 247
1 248
1 249
1 250
1 251
1 252
1 253
1 254
1 255
1 256
1 257
1 258
1 259
1 260
1 261
1 262
1 263
1 264
1 265
1 266
1 267
1 268
1 269
1 270
1 271
1 272

POINT_DATA 273
SCALARS scalars float 1
LOOKUP_TABLE default
0.500000
0.500000
0.500000
0.500000
0.500000
0.500000
0.500000
0.500000
0.500000
0.500000
0.500000
0.500000
0.500000
0.500000
0.500000
0.500000
0.500000
0.500000
0.500000
0.500000
0.500000
0.500000
0.500000
0.500000
0.500000
0.500000
0.500000
0.500000
0.500000
0.500000
0.500000
0.500000
0.500000
0.500000
0.500000
0.500000
0.500000
0.500000
0.500000
0.500000
0.500000
0.500000
0.500000
0.500000
0.500000
0.500000
0.500000
0.500000
0.500000
0.500000
0.500000
0.500000
0.500000
0.500000
0.500000
0.500000
0.500000
0.500000
0.500000
0.500000
0.500000
0.500000
0.500000
0.500000
0.500000
0.500000
0.500000
0.500000
0.500000
0.500000
0.500000
0.500000
0.500000
0.500000
0.500000
0.500000
0.500000
0.500000
0.500000
0.500000
0.500000
0.500000
0.500000
0.500000
0.500000
0.500000
0.500000
0.500000
0.500000
0.500000
0.500000
0.500000
0.500000
0.500000
0.500000
0.500000
0.500000
0.500000
0.500000
0.500000
0.500000
0.500000
0.500000
0.500000
0.500000
0.500000
0.500000
0.500000
0.500000
0.500000
0.500000
0.500000
0.500000
0.500000
0.500000
0.500000
0.500000
0.500000
0.500000
0.500000
0.500000
0.500000
0.500000
0.500000
0.500000
0.500000
0.500000
0.500000
0.500000
0.500000
0.500000
0.500000
0.500000
0.500000
0.500000
0.500000
0.500000
0.500000
0.500000
0.500000
0.500000
0.500000
0.500000
0.500000
0.500000
0.500000
0.500000
0.500000
0.500000
0.500000
0.500000
0.500000
0.500000
0.500000
0.500000
0.500000
0.500000
0.500000
0.500000
0.500000
0.500000
0.500000
0.500000
0.500000
0.500000
0.500000
0.500000
0.500000
0.500000
0.500000
0.500000
0.500000
0.500000
0.500000
0.500000
0.500000
0.500000
0.500000
0.500000
0.500000
0.500000
0.500000
0.500000
0.500000
0.500000
0.500000
0.500000
0.500000
0.500000
0.500000
0.500000
0.500000
0.500000
0.500000
0.500000
0.500000
0.500000
0.500000
0.500000
0.500000
0.500000
0.500000
0.500000
0.500000
0.500000
0.500000
0.500000
0.500000
0.500000
0.500000
0.500000
0.500000
0.500000
0.500000
0.500000
0.500000
0.500000
0.500000
0.500000
0.500000
0.500000
0.500000
0.500000
0.500000
0.500000
0.500000
0.500000
0.500000
0.500000
0.500000
0.500000
0.500000
0.500000
0.500000
0.500000
0.500000
0.500000
0.500000
0.500000
0.500000
0.500000
0.500000
0.500000
0.500000
0.500000
0.500000
0.500000
0.500000
0.500000
0.500000
0.500000
0.500000
0.500000
0.500000
0.500000
0.500000
0.500000
0.500000
0.500000
0.500000
0.500000
0.500000
0.500000
0.500000
0.500000
0.500000
0.500000
0.500000
0.500000
0.500000
0.500000
0.500000
0.500000
